 Gaussian 16, Revision A.03,

 ---------------------------------------------------------------------
 # polar def2tzvp empiricaldispersion=gd3bj int=grid=ultrafine pbe1pbe
 ---------------------------------------------------------------------

 ---------
 2oyy_II_S
 ---------
 Symbolic Z-matrix:
 Charge =  0 Multiplicity = 1

 SCF Done:  E(RPBE1PBE) =  -3443.31657836     A.U. after   36 cycles

  Exact polarizability: 862.087 -52.797 804.471 -19.171  59.904 386.958
 Approx polarizability:1456.967-118.8461507.835 -23.544 173.056 629.311

 Normal termination of Gaussian 16 at Sun Aug 28 17:43:53 2022.
 Gaussian 16:  ES64L-G16RevA.03 25-Dec-2016

 ----------------------------------------------------------------------
 # PBE1PBE/def2TZVP empiricaldispersion=GD3BJ int=(grid=ultrafine) geom
 =check guess=read pop=nbo scf=qc
 ----------------------------------------------------------------------

 -------------
 2oyy_II_S_nbo
 -------------
 Structure from the checkpoint file:  "2oyy_II_S.chk"
 Charge =  0 Multiplicity = 1

                         Standard orientation:
 ---------------------------------------------------------------------
 Center     Atomic      Atomic             Coordinates (Angstroms)
 Number     Number       Type             X           Y           Z
 ---------------------------------------------------------------------
      1          6           0        4.321628   -2.725521    5.045527
      2          6           0        3.403648   -2.046433    4.057194
      3          6           0        2.824204   -2.769966    3.014826
      4          6           0        3.098249   -0.677237    4.160289
      5          6           0        1.970290   -2.152119    2.090236
      6          6           0        2.232260   -0.055921    3.245505
      7          6           0        1.676724   -0.800585    2.215579
      8          8           0        0.824023   -0.229479    1.304839
      9          6           0       -2.744709    0.140795   -0.679951
     10          6           0        0.279477    3.843881   -0.331062
     11          6           0        4.027491    0.821337   -0.642026
     12          6           0        1.006499   -2.860155   -1.519401
     13          6           0       -2.265739    1.411028   -0.539169
     14          6           0       -3.072439    2.606634   -0.371717
     15          6           0       -2.231332    3.641668   -0.272357
     16          6           0       -0.878376    3.118195   -0.379633
     17          6           0       -2.597017    5.131447   -0.077615
     18          6           0       -4.620498    2.633906   -0.311385
     19          6           0       -5.105067    2.146104    1.064328
     20          6           0       -6.618325    2.147372    1.140206
     21          8           0       -7.270675    3.115729    0.673069
     22          8           0       -7.189143    1.167224    1.668041
     23          6           0        1.558455    3.345075   -0.401611
     24          6           0        2.754912    4.150164   -0.397334
     25          6           0        3.803650    3.317831   -0.479508
     26          6           0        3.286474    1.967702   -0.546575
     27          6           0        2.770713    5.696302   -0.312230
     28          6           0        5.299773    3.710517   -0.499678
     29          6           0        5.891119    4.066916   -1.665806
     30          6           0        3.527005   -0.438831   -0.884861
     31          6           0        4.317231   -1.638396   -1.001343
     32          6           0        3.490664   -2.661684   -1.248691
     33          6           0        2.145076   -2.132766   -1.297332
     34          6           0        5.852347   -1.671487   -0.853244
     35          6           0        3.853409   -4.146290   -1.423695
     36          6           0        4.976903   -4.494526   -2.096792
     37          6           0       -0.278757   -2.386639   -1.381451
     38          6           0       -1.467977   -3.174449   -1.607690
     39          6           0       -2.612930   -2.236906   -1.355092
     40          6           0       -2.021865   -0.978067   -0.989440
     41          6           0       -1.595488   -4.645741   -2.029482
     42          6           0       -4.107997   -2.599289   -1.445097
     43          6           0       -4.458707   -3.030384   -0.021500
     44          6           0       -5.894460   -3.438735    0.116692
     45          8           0       -6.234215   -4.503581   -0.469284
     46          8           0       -6.662969   -2.709290    0.814683
     47          7           0       -0.933306    1.759816   -0.532645
     48          7           0        1.918500    2.015254   -0.492853
     49          7           0        2.195116   -0.773364   -1.068815
     50          7           0       -0.643453   -1.091817   -1.013617
     51         26           0        0.635553    0.502390   -0.569920
     52          1           0        4.195556   -2.283116    6.011593
     53          1           0        4.082915   -3.767311    5.096419
     54          1           0        5.336823   -2.607286    4.728827
     55          1           0        3.532975   -0.099288    4.948888
     56          1           0        2.002689    0.984655    3.342460
     57          1           0        1.545611   -2.720871    1.289567
     58          1           0        3.035063   -3.814617    2.919208
     59          1           0       -3.795963    0.006284   -0.532741
     60          1           0        0.180238    4.904273   -0.228006
     61          1           0        5.086372    0.911506   -0.517362
     62          1           0        1.125290   -3.878747   -1.824784
     63          1           0       -1.686356   -5.259998   -1.158086
     64          1           0       -2.463489   -4.766855   -2.643327
     65          1           0       -0.725454   -4.935385   -2.580887
     66          1           0       -1.793913    5.633731    0.420015
     67          1           0       -2.764669    5.585253   -1.032001
     68          1           0       -3.485510    5.206236    0.513897
     69          1           0       -4.963889    3.634208   -0.473803
     70          1           0       -5.016127    1.995300   -1.073329
     71          1           0       -4.715013    2.791859    1.823116
     72          1           0       -4.746092    1.151939    1.230684
     73          1           0       -7.183364    1.065241    2.622591
     74          1           0       -6.314243   -2.228891    1.569141
     75          1           0       -4.265480   -2.215211    0.644124
     76          1           0       -3.836359   -3.856408    0.252850
     77          1           0       -4.685501   -1.745749   -1.732947
     78          1           0       -4.258962   -3.406679   -2.130831
     79          1           0        6.112275   -1.604294    0.182528
     80          1           0        6.229959   -2.587602   -1.257029
     81          1           0        6.279616   -0.845518   -1.382503
     82          1           0        3.605997    6.012559    0.276992
     83          1           0        2.852960    6.106885   -1.296891
     84          1           0        1.864098    6.037789    0.142013
     85          1           0        0.657870    0.683483    1.550793
     86          1           0        5.867732    3.700740    0.407090
     87          1           0        6.865617    4.508729   -1.658350
     88          1           0        5.383520    3.906499   -2.593981
     89          1           0        3.218674   -4.904014   -1.013981
     90          1           0        5.914082   -4.546002   -1.583034
     91          1           0        4.926782   -4.717998   -3.141994
 ---------------------------------------------------------------------

 SCF Done:  E(RPBE1PBE) =  -3443.31657836     a.u. after    1 cycles

 The electronic state is 1-A.
 Alpha  occ. eigenvalues -- -256.33687 -30.10170 -25.93260 -25.92529 -25.92514
 Alpha  occ. eigenvalues --  -19.27399 -19.27246 -19.26893 -19.19379 -19.17820
 Alpha  occ. eigenvalues --  -14.38794 -14.38750 -14.38247 -14.37457 -10.36511
 Alpha  occ. eigenvalues --  -10.35348 -10.30078 -10.25760 -10.25619 -10.25562
 Alpha  occ. eigenvalues --  -10.25548 -10.25546 -10.25515 -10.25316 -10.25238
 Alpha  occ. eigenvalues --  -10.25090 -10.24454 -10.24380 -10.24239 -10.23989
 Alpha  occ. eigenvalues --  -10.23981 -10.23810 -10.23727 -10.23655 -10.23556
 Alpha  occ. eigenvalues --  -10.23519 -10.23400 -10.23318 -10.23316 -10.23207
 Alpha  occ. eigenvalues --  -10.23202 -10.23176 -10.23030 -10.22671 -10.22663
 Alpha  occ. eigenvalues --  -10.22602 -10.22534 -10.22449 -10.22420 -10.22237
 Alpha  occ. eigenvalues --  -10.22080 -10.21915 -10.21878 -10.21686 -10.21154
 Alpha  occ. eigenvalues --   -3.45380  -2.22017  -2.20434  -2.20326  -1.17939
 Alpha  occ. eigenvalues --   -1.16579  -1.12787  -1.03500  -1.02367  -0.99007
 Alpha  occ. eigenvalues --   -0.98103  -0.97496  -0.95570  -0.89209  -0.85076
 Alpha  occ. eigenvalues --   -0.84304  -0.83658  -0.83225  -0.82817  -0.82052
 Alpha  occ. eigenvalues --   -0.81831  -0.80669  -0.80040  -0.78602  -0.78197
 Alpha  occ. eigenvalues --   -0.77829  -0.77672  -0.76782  -0.74708  -0.73091
 Alpha  occ. eigenvalues --   -0.72343  -0.72188  -0.71996  -0.70914  -0.70190
 Alpha  occ. eigenvalues --   -0.69324  -0.67672  -0.66987  -0.66457  -0.65900
 Alpha  occ. eigenvalues --   -0.65844  -0.62916  -0.61813  -0.61562  -0.60124
 Alpha  occ. eigenvalues --   -0.58958  -0.58377  -0.56931  -0.55910  -0.55671
 Alpha  occ. eigenvalues --   -0.54341  -0.54078  -0.53671  -0.53391  -0.52718
 Alpha  occ. eigenvalues --   -0.52465  -0.52116  -0.51780  -0.50284  -0.50049
 Alpha  occ. eigenvalues --   -0.49800  -0.49581  -0.49423  -0.49041  -0.47802
 Alpha  occ. eigenvalues --   -0.47650  -0.47272  -0.47175  -0.46702  -0.46600
 Alpha  occ. eigenvalues --   -0.46250  -0.45726  -0.45484  -0.45191  -0.45085
 Alpha  occ. eigenvalues --   -0.44955  -0.44688  -0.44499  -0.44291  -0.44152
 Alpha  occ. eigenvalues --   -0.43936  -0.43838  -0.43500  -0.43120  -0.42965
 Alpha  occ. eigenvalues --   -0.42448  -0.41985  -0.41557  -0.41459  -0.41377
 Alpha  occ. eigenvalues --   -0.40895  -0.40708  -0.40412  -0.40405  -0.40162
 Alpha  occ. eigenvalues --   -0.39989  -0.39488  -0.39255  -0.38963  -0.38493
 Alpha  occ. eigenvalues --   -0.38166  -0.38031  -0.37696  -0.37436  -0.37155
 Alpha  occ. eigenvalues --   -0.36680  -0.36408  -0.36335  -0.36195  -0.36025
 Alpha  occ. eigenvalues --   -0.35515  -0.34744  -0.34091  -0.33806  -0.33369
 Alpha  occ. eigenvalues --   -0.32354  -0.31877  -0.30573  -0.29470  -0.29302
 Alpha  occ. eigenvalues --   -0.28976  -0.28106  -0.27592  -0.27523  -0.27374
 Alpha  occ. eigenvalues --   -0.27001  -0.26278  -0.24963  -0.23700  -0.22826
 Alpha  occ. eigenvalues --   -0.21892  -0.20953  -0.20468  -0.20226  -0.17613
 Alpha virt. eigenvalues --   -0.10629  -0.08455  -0.07259  -0.04354  -0.03002
 Alpha virt. eigenvalues --   -0.02242  -0.01871  -0.01396  -0.00890  -0.00102
 Alpha virt. eigenvalues --    0.00457   0.02049   0.02383   0.03011   0.03972

 Mulliken charges:
               1
     1  C   -0.387095
     2  C    0.172259
     3  C   -0.214446
     4  C   -0.209319
     5  C   -0.167224
     6  C   -0.206905
     7  C    0.284870
     8  O   -0.291999
     9  C   -0.435375
    10  C   -0.462389
    11  C   -0.469903
    12  C   -0.581850
    13  C    0.246450
    14  C    0.019960
    15  C   -0.084512
    16  C    0.270367
    17  C   -0.416940
    18  C   -0.373408
    19  C   -0.221076
    20  C    0.312489
    21  O   -0.339729
    22  O   -0.352497
    23  C    0.288086
    24  C   -0.028488
    25  C   -0.037588
    26  C    0.259458
    27  C   -0.375659
    28  C   -0.293623
    29  C   -0.238146
    30  C    0.317681
    31  C    0.005541
    32  C   -0.023030
    33  C    0.217048
    34  C   -0.372593
    35  C   -0.209681
    36  C   -0.342461
    37  C    0.388609
    38  C   -0.112790
    39  C   -0.049063
    40  C    0.237043
    41  C   -0.405927
    42  C   -0.230561
    43  C   -0.266535
    44  C    0.348441
    45  O   -0.374636
    46  O   -0.313795
    47  N   -0.094035
    48  N   -0.043824
    49  N   -0.111932
    50  N   -0.088661
    51  Fe  -0.052801
    52  H    0.129446
    53  H    0.130192
    54  H    0.135702
    55  H    0.115620
    56  H    0.119291
    57  H    0.150478
    58  H    0.110643
    59  H    0.115027
    60  H    0.101272
    61  H    0.134314
    62  H    0.112280
    63  H    0.142428
    64  H    0.140921
    65  H    0.133353
    66  H    0.128374
    67  H    0.152685
    68  H    0.140034
    69  H    0.157445
    70  H    0.146222
    71  H    0.139548
    72  H    0.105592
    73  H    0.351443
    74  H    0.338153
    75  H    0.099995
    76  H    0.138926
    77  H    0.130425
    78  H    0.136828
    79  H    0.143210
    80  H    0.103273
    81  H    0.130201
    82  H    0.137234
    83  H    0.144998
    84  H    0.123334
    85  H    0.330815
    86  H    0.132985
    87  H    0.128366
    88  H    0.138150
    89  H    0.152344
    90  H    0.159098
    91  H    0.151553
 Sum of Mulliken charges =   0.00000

 Dipole moment (field-independent basis, Debye):
    X=              6.1982    Y=              2.1841    Z=              6.9100  Tot=              9.5361
 Quadrupole moment (field-independent basis, Debye-Ang):
   XX=           -336.0975   YY=           -308.5607   ZZ=           -284.8389
   XY=            -11.4171   XZ=            -19.7360   YZ=             -1.9659

 Summary of Natural Population Analysis:

                                       Natural Population
                Natural  -----------------------------------------------
    Atom  No    Charge         Core      Valence    Rydberg      Total
 -----------------------------------------------------------------------
      C    1   -0.62827      1.99940     4.61742    0.01145     6.62827
      C    2   -0.03141      1.99916     4.01447    0.01777     6.03141
      C    3   -0.19072      1.99914     4.17522    0.01636     6.19072
      C    4   -0.19240      1.99918     4.17679    0.01643     6.19240
      C    5   -0.24365      1.99910     4.22565    0.01890     6.24365
      C    6   -0.26912      1.99911     4.25268    0.01734     6.26912
      C    7    0.26982      1.99867     3.70909    0.02242     5.73018
      O    8   -0.56840      1.99976     6.54509    0.02355     8.56840
      C    9   -0.23071      1.99891     4.21376    0.01805     6.23071
      C   10   -0.24360      1.99894     4.22815    0.01651     6.24360
      C   11   -0.22722      1.99894     4.21195    0.01633     6.22722
      C   12   -0.22380      1.99891     4.20764    0.01724     6.22380
      C   13    0.14564      1.99905     3.83522    0.02010     5.85436
      C   14   -0.03379      1.99873     4.01544    0.01961     6.03379
      C   15   -0.01827      1.99875     4.00271    0.01681     6.01827
      C   16    0.14637      1.99907     3.83396    0.02060     5.85363
      C   17   -0.63711      1.99940     4.63034    0.00738     6.63711
      C   18   -0.41358      1.99935     4.39914    0.01509     6.41358
      C   19   -0.51468      1.99926     4.49847    0.01695     6.51468
      C   20    0.76625      1.99951     3.19914    0.03510     5.23375
      O   21   -0.55792      1.99979     6.53532    0.02280     8.55792
      O   22   -0.68641      1.99958     6.65625    0.03057     8.68641
      C   23    0.14185      1.99905     3.83899    0.02011     5.85815
      C   24   -0.00559      1.99874     3.98967    0.01718     6.00559
      C   25   -0.08636      1.99870     4.06512    0.02254     6.08636
      C   26    0.15654      1.99905     3.82417    0.02023     5.84346
      C   27   -0.63231      1.99940     4.62561    0.00730     6.63231
      C   28   -0.20158      1.99922     4.18317    0.01918     6.20158
      C   29   -0.37331      1.99926     4.35907    0.01498     6.37331
      C   30    0.15093      1.99906     3.82981    0.02020     5.84907
      C   31   -0.01304      1.99874     3.99651    0.01778     6.01304
      C   32   -0.09353      1.99862     4.07257    0.02234     6.09353
      C   33    0.15206      1.99901     3.82677    0.02216     5.84794
      C   34   -0.64328      1.99940     4.63637    0.00751     6.64328
      C   35   -0.13837      1.99923     4.11698    0.02217     6.13837
      C   36   -0.44475      1.99929     4.42018    0.02527     6.44475
      C   37    0.12376      1.99899     3.85691    0.02034     5.87624
      C   38   -0.00979      1.99915     3.99445    0.01619     6.00979
      C   39   -0.01673      1.99915     3.99996    0.01762     6.01673
      C   40    0.12065      1.99895     3.86008    0.02033     5.87935
      C   41   -0.64349      1.99937     4.63717    0.00694     6.64349
      C   42   -0.42057      1.99932     4.40644    0.01481     6.42057
      C   43   -0.50068      1.99926     4.48363    0.01779     6.50068
      C   44    0.76004      1.99942     3.20676    0.03378     5.23996
      O   45   -0.58339      1.99979     6.56058    0.02302     8.58339
      O   46   -0.64366      1.99963     6.61456    0.02947     8.64366
      N   47   -0.45516      1.99936     5.41239    0.04341     7.45516
      N   48   -0.44707      1.99934     5.40505    0.04267     7.44707
      N   49   -0.42431      1.99939     5.38301    0.04192     7.42431
      N   50   -0.44227      1.99938     5.40032    0.04257     7.44227
     Fe   51    0.56873     17.99032     7.41737    0.02357    25.43127
      H   52    0.21773      0.00000     0.78120    0.00107     0.78227
      H   53    0.21765      0.00000     0.78129    0.00106     0.78235
      H   54    0.22153      0.00000     0.77727    0.00121     0.77847
      H   55    0.21303      0.00000     0.78569    0.00128     0.78697
      H   56    0.21584      0.00000     0.78281    0.00135     0.78416
      H   57    0.23672      0.00000     0.76126    0.00202     0.76328
      H   58    0.21253      0.00000     0.78606    0.00141     0.78747
      H   59    0.20794      0.00000     0.78908    0.00299     0.79206
      H   60    0.21672      0.00000     0.78048    0.00280     0.78328
      H   61    0.22716      0.00000     0.77048    0.00236     0.77284
      H   62    0.22268      0.00000     0.77317    0.00415     0.77732
      H   63    0.22123      0.00000     0.77711    0.00166     0.77877
      H   64    0.22574      0.00000     0.77272    0.00154     0.77426
      H   65    0.21875      0.00000     0.77994    0.00131     0.78125
      H   66    0.21671      0.00000     0.78201    0.00127     0.78329
      H   67    0.22573      0.00000     0.77273    0.00154     0.77427
      H   68    0.22091      0.00000     0.77771    0.00138     0.77909
      H   69    0.23978      0.00000     0.75874    0.00148     0.76022
      H   70    0.22202      0.00000     0.77640    0.00158     0.77798
      H   71    0.23777      0.00000     0.76090    0.00132     0.76223
      H   72    0.20993      0.00000     0.78845    0.00163     0.79007
      H   73    0.51272      0.00000     0.48491    0.00237     0.48728
      H   74    0.50086      0.00000     0.49679    0.00234     0.49914
      H   75    0.19116      0.00000     0.80716    0.00168     0.80884
      H   76    0.24194      0.00000     0.75669    0.00136     0.75806
      H   77    0.21664      0.00000     0.78169    0.00167     0.78336
      H   78    0.23821      0.00000     0.76007    0.00172     0.76179
      H   79    0.22315      0.00000     0.77534    0.00151     0.77685
      H   80    0.22564      0.00000     0.77120    0.00316     0.77436
      H   81    0.21878      0.00000     0.77976    0.00147     0.78122
      H   82    0.22527      0.00000     0.77331    0.00142     0.77473
      H   83    0.22555      0.00000     0.77296    0.00149     0.77445
      H   84    0.21166      0.00000     0.78708    0.00126     0.78834
      H   85    0.51100      0.00000     0.48514    0.00386     0.48900
      H   86    0.20844      0.00000     0.78975    0.00180     0.79156
      H   87    0.19918      0.00000     0.79942    0.00140     0.80082
      H   88    0.20199      0.00000     0.79632    0.00170     0.79801
      H   89    0.20966      0.00000     0.78761    0.00272     0.79034
      H   90    0.20532      0.00000     0.79253    0.00215     0.79468
      H   91    0.21234      0.00000     0.78506    0.00260     0.78766
 =======================================================================
   * Total *   -0.00000    117.94929   260.90589    1.14482   380.00000

 Normal termination of Gaussian 16 at Sun Aug 28 18:16:20 2022.
