 Gaussian 16, Revision A.03,

 ---------------------------------------------------------------------
 # polar def2tzvp empiricaldispersion=gd3bj int=grid=ultrafine pbe1pbe
 ---------------------------------------------------------------------

 ---------
 1f1c_II_S
 ---------
 Symbolic Z-matrix:
 Charge =  0 Multiplicity = 1

 SCF Done:  E(RPBE1PBE) =  -3628.77095652     A.U. after   29 cycles

  Exact polarizability: 899.851 -29.964 987.320 -35.022 157.508 495.233
 Approx polarizability:1828.738-877.7885576.396-396.7321856.5031385.227

 Normal termination of Gaussian 16 at Mon Apr  3 02:05:29 2023.
 Gaussian 16:  ES64L-G16RevA.03 25-Dec-2016

 ----------------------------------------------------------------------
 # PBE1PBE/def2TZVP empiricaldispersion=GD3BJ int=(grid=ultrafine) geom
 =check guess=read pop=nbo scf=qc
 ----------------------------------------------------------------------

 -------------
 1f1c_II_S_nbo
 -------------
 Structure from the checkpoint file:  "1f1c_II_S.chk"
 Charge =  0 Multiplicity = 1

                         Standard orientation:
 ---------------------------------------------------------------------
 Center     Atomic      Atomic             Coordinates (Angstroms)
 Number     Number       Type             X           Y           Z
 ---------------------------------------------------------------------
      1          6           0        2.551255   -2.130370    4.876773
      2          6           0        1.650938   -1.485267    3.874582
      3          7           0        0.364289   -1.092193    4.176306
      4          6           0        1.816836   -1.238250    2.552357
      5          6           0       -0.223007   -0.640455    3.082174
      6          7           0        0.636336   -0.718250    2.075670
      7          6           0        0.636726    3.418152   -4.485266
      8          6           0        0.779179    2.192340   -3.624389
      9          7           0        1.458397    1.062916   -4.035916
     10          6           0        0.327648    1.917668   -2.377018
     11          6           0        1.414251    0.148794   -3.078539
     12          7           0        0.735400    0.637792   -2.053542
     13         26           0        0.768103   -0.039259    0.029596
     14          6           0       -2.628643   -0.047628   -0.028444
     15          6           0        0.751890   -3.469574   -0.678998
     16          6           0        4.167631   -0.117307   -0.154649
     17          6           0        0.794094    3.137647    1.186437
     18          7           0       -0.619882   -1.417130   -0.349205
     19          6           0       -1.977192   -1.241080   -0.345085
     20          6           0       -2.629237   -2.501911   -0.577782
     21          6           0       -1.702544   -3.443020   -0.757571
     22          6           0       -0.457756   -2.784941   -0.572247
     23          6           0       -1.879632   -4.862494   -1.272410
     24          6           0       -4.100290   -2.736725   -0.653503
     25          6           0       -4.570678   -2.957052    0.760961
     26          6           0       -6.001751   -3.409627    0.806000
     27          8           0       -6.632078   -3.475479   -0.266631
     28          8           0       -6.496317   -3.697389    1.909630
     29          7           0        2.141990   -1.448090   -0.356183
     30          6           0        1.964567   -2.830640   -0.598880
     31          6           0        3.196240   -3.478808   -0.904116
     32          6           0        4.138460   -2.514393   -0.891824
     33          6           0        3.503401   -1.279904   -0.488136
     34          6           0        3.434235   -4.955848   -1.170757
     35          6           0        5.475266   -2.692701   -1.247479
     36          6           0        5.851373   -3.068074   -2.551233
     37          7           0        2.162224    1.218732    0.462113
     38          6           0        3.529361    1.026803    0.349277
     39          6           0        4.250373    2.178849    0.773326
     40          6           0        3.328497    3.132189    1.096083
     41          6           0        2.016096    2.498478    0.942057
     42          6           0        5.765875    2.302459    0.916179
     43          6           0        3.631381    4.413453    1.626621
     44          6           0        4.424838    5.354822    0.903478
     45          7           0       -0.618909    1.289306    0.425140
     46          6           0       -0.441577    2.585368    0.854214
     47          6           0       -1.685963    3.258268    1.007297
     48          6           0       -2.638506    2.367261    0.666619
     49          6           0       -1.981758    1.132045    0.332494
     50          6           0       -1.906983    4.642727    1.658487
     51          6           0       -4.144146    2.629521    0.557890
     52          6           0       -4.544383    3.157954   -0.818751
     53          6           0       -6.051420    3.347530   -0.966532
     54          8           0       -6.795814    2.350228   -0.972750
     55          8           0       -6.498346    4.506635   -1.072354
     56          1           0        1.603364    3.735732   -4.816405
     57          1           0        0.026485    3.189106   -5.333820
     58          1           0        0.179028    4.201319   -3.917761
     59          1           0       -0.242692    2.574373   -1.753840
     60          1           0        1.913095    0.952268   -4.919662
     61          1           0        1.855079   -0.825013   -3.126176
     62          1           0       -1.225882   -0.272821    3.019025
     63          1           0        2.705084   -1.415627    1.982748
     64          1           0       -0.058236   -1.141275    5.081328
     65          1           0        2.743954   -3.141456    4.584418
     66          1           0        3.474222   -1.591308    4.926202
     67          1           0        2.080526   -2.120463    5.837614
     68          1           0       -3.954962   -3.701333    1.221221
     69          1           0       -4.477342   -2.041084    1.306113
     70          1           0       -4.303521   -3.603481   -1.247078
     71          1           0       -4.587347   -1.881444   -1.073229
     72          1           0       -6.676400   -4.305375   -0.747158
     73          1           0       -6.576146    1.583957   -0.437798
     74          1           0       -4.209686    2.466515   -1.563593
     75          1           0       -4.061545    4.099109   -0.979981
     76          1           0       -4.669041    1.715885    0.744046
     77          1           0       -4.424881    3.347902    1.299521
     78          1           0       -3.697960   -0.038443   -0.065547
     79          1           0        0.734743   -4.528947   -0.828445
     80          1           0       -1.811233   -5.549515   -0.454961
     81          1           0       -2.838613   -4.956098   -1.737697
     82          1           0       -1.113685   -5.080902   -1.986918
     83          1           0       -1.073467    4.878602    2.286590
     84          1           0       -1.999120    5.385789    0.894112
     85          1           0       -2.801349    4.622083    2.245500
     86          1           0        0.810049    4.100578    1.652708
     87          1           0        5.228875   -0.086174   -0.287660
     88          1           0        3.546776   -5.472592   -0.240591
     89          1           0        2.600277   -5.360727   -1.705068
     90          1           0        4.323224   -5.074211   -1.754357
     91          1           0        6.173205    1.361528    1.222172
     92          1           0        6.190772    2.586260   -0.023938
     93          1           0        5.995433    3.046192    1.650390
     94          1           0        6.102901   -2.194364   -3.115382
     95          1           0        6.699486   -3.718773   -2.504375
     96          1           0        5.037576   -3.576371   -3.024803
     97          1           0        6.235197   -2.540144   -0.509827
     98          1           0        5.253860    4.850600    0.452498
     99          1           0        3.828977    5.813080    0.141999
    100          1           0        4.786287    6.106240    1.574020
    101          1           0        3.255811    4.680426    2.592319
 ---------------------------------------------------------------------

 SCF Done:  E(RPBE1PBE) =  -3628.77095652     a.u. after    1 cycles

 The electronic state is 1-A.
 Alpha  occ. eigenvalues -- -256.30852 -30.07790 -25.90661 -25.90314 -25.90067
 Alpha  occ. eigenvalues --  -19.26438 -19.25741 -19.18164 -19.16868 -14.44609
 Alpha  occ. eigenvalues --  -14.44530 -14.38472 -14.38359 -14.37158 -14.36416
 Alpha  occ. eigenvalues --  -14.36272 -14.35742 -10.35067 -10.34444 -10.27916
 Alpha  occ. eigenvalues --  -10.27738 -10.25974 -10.25514 -10.24054 -10.24031
 Alpha  occ. eigenvalues --  -10.23833 -10.23544 -10.23485 -10.23479 -10.23463
 Alpha  occ. eigenvalues --  -10.23379 -10.23359 -10.23173 -10.23011 -10.22704
 Alpha  occ. eigenvalues --  -10.22564 -10.22551 -10.22512 -10.22155 -10.21714
 Alpha  occ. eigenvalues --  -10.21606 -10.21557 -10.21499 -10.21383 -10.21275
 Alpha  occ. eigenvalues --  -10.21096 -10.21041 -10.20903 -10.20868 -10.20799
 Alpha  occ. eigenvalues --  -10.20783 -10.20709 -10.20684 -10.20438 -10.20223
 Alpha  occ. eigenvalues --  -10.20100 -10.20068 -10.19941 -10.19820  -3.42261
 Alpha  occ. eigenvalues --   -2.18221  -2.17694  -2.17314  -1.17229  -1.17035
 Alpha  occ. eigenvalues --   -1.06145  -1.06111  -1.03111  -1.02041  -0.97222
 Alpha  occ. eigenvalues --   -0.96184  -0.96014  -0.94904  -0.90361  -0.90314
 Alpha  occ. eigenvalues --   -0.84664  -0.83620  -0.83413  -0.82691  -0.82356
 Alpha  occ. eigenvalues --   -0.81206  -0.81148  -0.80447  -0.80171  -0.78903
 Alpha  occ. eigenvalues --   -0.78253  -0.77312  -0.76478  -0.74399  -0.73662
 Alpha  occ. eigenvalues --   -0.72543  -0.72486  -0.72301  -0.71788  -0.71117
 Alpha  occ. eigenvalues --   -0.69804  -0.69439  -0.68882  -0.66832  -0.66316
 Alpha  occ. eigenvalues --   -0.64881  -0.64792  -0.64436  -0.64330  -0.62305
 Alpha  occ. eigenvalues --   -0.62034  -0.61893  -0.61649  -0.58407  -0.56823
 Alpha  occ. eigenvalues --   -0.56368  -0.56218  -0.55775  -0.54901  -0.54152
 Alpha  occ. eigenvalues --   -0.53794  -0.53366  -0.53046  -0.52038  -0.51761
 Alpha  occ. eigenvalues --   -0.51132  -0.50479  -0.49329  -0.49004  -0.48424
 Alpha  occ. eigenvalues --   -0.48331  -0.48220  -0.47883  -0.47769  -0.47689
 Alpha  occ. eigenvalues --   -0.47557  -0.47386  -0.46238  -0.45743  -0.45461
 Alpha  occ. eigenvalues --   -0.44949  -0.44833  -0.44741  -0.44701  -0.44382
 Alpha  occ. eigenvalues --   -0.43863  -0.43601  -0.43477  -0.43432  -0.43286
 Alpha  occ. eigenvalues --   -0.43165  -0.43048  -0.42916  -0.42762  -0.42655
 Alpha  occ. eigenvalues --   -0.42554  -0.42241  -0.42142  -0.42006  -0.41489
 Alpha  occ. eigenvalues --   -0.41277  -0.41099  -0.40712  -0.40351  -0.40082
 Alpha  occ. eigenvalues --   -0.39831  -0.39624  -0.39389  -0.39148  -0.39013
 Alpha  occ. eigenvalues --   -0.38829  -0.38272  -0.38048  -0.37767  -0.37673
 Alpha  occ. eigenvalues --   -0.37154  -0.36797  -0.36612  -0.36259  -0.36031
 Alpha  occ. eigenvalues --   -0.35776  -0.34871  -0.34738  -0.34368  -0.34056
 Alpha  occ. eigenvalues --   -0.33678  -0.32492  -0.32087  -0.32004  -0.31772
 Alpha  occ. eigenvalues --   -0.31546  -0.31435  -0.30982  -0.30035  -0.29239
 Alpha  occ. eigenvalues --   -0.28075  -0.27452  -0.27105  -0.26682  -0.25240
 Alpha  occ. eigenvalues --   -0.24980  -0.24255  -0.24152  -0.23945  -0.23048
 Alpha  occ. eigenvalues --   -0.19806  -0.18692  -0.18492  -0.18352  -0.17781
 Alpha  occ. eigenvalues --   -0.12650
 Alpha virt. eigenvalues --   -0.10105  -0.05929  -0.05508  -0.01848  -0.00352
 Alpha virt. eigenvalues --    0.00024   0.01226   0.01673   0.02156   0.02303
 Alpha virt. eigenvalues --    0.02683   0.02923   0.03562   0.04215   0.04776

 Mulliken charges:
               1
     1  C   -0.354274
     2  C    0.102364
     3  N   -0.213633
     4  C   -0.122245
     5  C    0.016298
     6  N   -0.052972
     7  C   -0.384012
     8  C    0.140530
     9  N   -0.213571
    10  C   -0.152804
    11  C    0.025633
    12  N   -0.083400
    13  Fe  -0.288710
    14  C   -0.487110
    15  C   -0.499782
    16  C   -0.533927
    17  C   -0.492431
    18  N    0.049312
    19  C    0.131130
    20  C    0.135943
    21  C   -0.153234
    22  C    0.302641
    23  C   -0.408786
    24  C   -0.297179
    25  C   -0.217223
    26  C    0.272817
    27  O   -0.348279
    28  O   -0.334138
    29  N   -0.096610
    30  C    0.254069
    31  C   -0.089982
    32  C    0.098448
    33  C    0.119366
    34  C   -0.368586
    35  C   -0.315761
    36  C   -0.308448
    37  N    0.076117
    38  C    0.294075
    39  C   -0.073667
    40  C    0.064793
    41  C    0.167607
    42  C   -0.439993
    43  C   -0.320621
    44  C   -0.284759
    45  N    0.017315
    46  C    0.250309
    47  C   -0.087876
    48  C    0.097017
    49  C    0.173841
    50  C   -0.396257
    51  C   -0.372011
    52  C   -0.214413
    53  C    0.298713
    54  O   -0.292772
    55  O   -0.361322
    56  H    0.133894
    57  H    0.138622
    58  H    0.146098
    59  H    0.144572
    60  H    0.228142
    61  H    0.168342
    62  H    0.156373
    63  H    0.154579
    64  H    0.227944
    65  H    0.145860
    66  H    0.148954
    67  H    0.113179
    68  H    0.143972
    69  H    0.129946
    70  H    0.071171
    71  H    0.118908
    72  H    0.356022
    73  H    0.341529
    74  H    0.138074
    75  H    0.122768
    76  H    0.098545
    77  H    0.124470
    78  H    0.074926
    79  H    0.131529
    80  H    0.143720
    81  H    0.116196
    82  H    0.136572
    83  H    0.130616
    84  H    0.144171
    85  H    0.128873
    86  H    0.095866
    87  H    0.112709
    88  H    0.136573
    89  H    0.122174
    90  H    0.133353
    91  H    0.130214
    92  H    0.139394
    93  H    0.145313
    94  H    0.133855
    95  H    0.116654
    96  H    0.123935
    97  H    0.122423
    98  H    0.127772
    99  H    0.134511
   100  H    0.113901
   101  H    0.125238
 Sum of Mulliken charges =  -0.00000

 Dipole moment (field-independent basis, Debye):
    X=              5.8884    Y=             -4.1807    Z=             -1.6522  Tot=              7.4081
 Quadrupole moment (field-independent basis, Debye-Ang):
   XX=           -372.5805   YY=           -329.0463   ZZ=           -279.1970
   XY=             28.4607   XZ=              0.5864   YZ=              9.9783

 Summary of Natural Population Analysis:

                                       Natural Population
                Natural  -----------------------------------------------
    Atom  No    Charge         Core      Valence    Rydberg      Total
 -----------------------------------------------------------------------
      C    1   -0.63802      1.99939     4.63214    0.00650     6.63802
      C    2    0.09279      1.99909     3.88884    0.01928     5.90721
      N    3   -0.48181      1.99936     5.46185    0.02060     7.48181
      C    4   -0.06589      1.99888     4.04851    0.01850     6.06589
      C    5    0.17957      1.99935     3.80069    0.02039     5.82043
      N    6   -0.34625      1.99941     5.29720    0.04964     7.34625
      C    7   -0.63784      1.99939     4.63228    0.00616     6.63784
      C    8    0.09584      1.99908     3.88600    0.01909     5.90416
      N    9   -0.48727      1.99936     5.46771    0.02020     7.48727
      C   10   -0.06979      1.99887     4.05144    0.01948     6.06979
      C   11    0.19477      1.99936     3.78620    0.01967     5.80523
      N   12   -0.35697      1.99942     5.30914    0.04840     7.35697
     Fe   13    0.18943     17.98886     7.77364    0.04807    25.81057
      C   14   -0.26593      1.99900     4.24921    0.01773     6.26593
      C   15   -0.22630      1.99894     4.21091    0.01644     6.22630
      C   16   -0.28043      1.99898     4.26431    0.01714     6.28043
      C   17   -0.23981      1.99901     4.22480    0.01600     6.23981
      N   18   -0.34716      1.99935     5.30260    0.04521     7.34716
      C   19    0.15030      1.99905     3.82975    0.02090     5.84970
      C   20   -0.03787      1.99881     4.01900    0.02007     6.03787
      C   21   -0.04335      1.99869     4.02632    0.01834     6.04335
      C   22    0.14883      1.99898     3.83142    0.02076     5.85117
      C   23   -0.63433      1.99940     4.62775    0.00718     6.63433
      C   24   -0.42364      1.99935     4.40882    0.01546     6.42364
      C   25   -0.51159      1.99925     4.49483    0.01751     6.51159
      C   26    0.76721      1.99949     3.19659    0.03670     5.23279
      O   27   -0.69058      1.99957     6.66146    0.02955     8.69058
      O   28   -0.56211      1.99978     6.53867    0.02365     8.56211
      N   29   -0.41869      1.99940     5.37591    0.04339     7.41869
      C   30    0.14188      1.99894     3.83857    0.02060     5.85812
      C   31   -0.03707      1.99877     4.01975    0.01855     6.03707
      C   32   -0.11776      1.99887     4.09570    0.02319     6.11776
      C   33    0.16820      1.99903     3.81099    0.02178     5.83180
      C   34   -0.63537      1.99940     4.62725    0.00873     6.63537
      C   35   -0.14782      1.99927     4.12455    0.02400     6.14782
      C   36   -0.65981      1.99936     4.64487    0.01558     6.65981
      N   37   -0.33794      1.99931     5.29574    0.04289     7.33794
      C   38    0.15279      1.99900     3.82751    0.02069     5.84721
      C   39   -0.04575      1.99882     4.02891    0.01802     6.04575
      C   40   -0.11199      1.99891     4.09111    0.02197     6.11199
      C   41    0.17833      1.99910     3.80137    0.02120     5.82167
      C   42   -0.64141      1.99940     4.63394    0.00807     6.64141
      C   43   -0.14130      1.99931     4.11844    0.02355     6.14130
      C   44   -0.66215      1.99939     4.64848    0.01428     6.66215
      N   45   -0.38002      1.99934     5.33493    0.04575     7.38002
      C   46    0.13454      1.99900     3.84551    0.02095     5.86546
      C   47   -0.03069      1.99871     4.01449    0.01749     6.03069
      C   48   -0.04809      1.99879     4.02964    0.01966     6.04809
      C   49    0.14471      1.99903     3.83575    0.02050     5.85529
      C   50   -0.63251      1.99940     4.62581    0.00731     6.63251
      C   51   -0.41406      1.99933     4.40094    0.01379     6.41406
      C   52   -0.50612      1.99927     4.49013    0.01673     6.50612
      C   53    0.76111      1.99951     3.20345    0.03593     5.23889
      O   54   -0.64054      1.99960     6.60973    0.03121     8.64054
      O   55   -0.57958      1.99978     6.55565    0.02414     8.57958
      H   56    0.21792      0.00000     0.78064    0.00145     0.78208
      H   57    0.21891      0.00000     0.77962    0.00147     0.78109
      H   58    0.23564      0.00000     0.76342    0.00094     0.76436
      H   59    0.23227      0.00000     0.76599    0.00173     0.76773
      H   60    0.41141      0.00000     0.58688    0.00171     0.58859
      H   61    0.22145      0.00000     0.77669    0.00186     0.77855
      H   62    0.21793      0.00000     0.78035    0.00172     0.78207
      H   63    0.23907      0.00000     0.75920    0.00173     0.76093
      H   64    0.41217      0.00000     0.58612    0.00171     0.58783
      H   65    0.22912      0.00000     0.76960    0.00128     0.77088
      H   66    0.23151      0.00000     0.76728    0.00121     0.76849
      H   67    0.21190      0.00000     0.78687    0.00123     0.78810
      H   68    0.24320      0.00000     0.75552    0.00128     0.75680
      H   69    0.24008      0.00000     0.75855    0.00137     0.75992
      H   70    0.20451      0.00000     0.79352    0.00197     0.79549
      H   71    0.21243      0.00000     0.78543    0.00214     0.78757
      H   72    0.51874      0.00000     0.47875    0.00251     0.48126
      H   73    0.50093      0.00000     0.49729    0.00178     0.49907
      H   74    0.22122      0.00000     0.77727    0.00152     0.77878
      H   75    0.23667      0.00000     0.76187    0.00146     0.76333
      H   76    0.18716      0.00000     0.80999    0.00286     0.81284
      H   77    0.22218      0.00000     0.77601    0.00182     0.77782
      H   78    0.19942      0.00000     0.79808    0.00250     0.80058
      H   79    0.21401      0.00000     0.78341    0.00258     0.78599
      H   80    0.21867      0.00000     0.77969    0.00165     0.78133
      H   81    0.21067      0.00000     0.78762    0.00170     0.78933
      H   82    0.22219      0.00000     0.77626    0.00155     0.77781
      H   83    0.21881      0.00000     0.77991    0.00128     0.78119
      H   84    0.22074      0.00000     0.77770    0.00156     0.77926
      H   85    0.21723      0.00000     0.78120    0.00157     0.78277
      H   86    0.21660      0.00000     0.77962    0.00378     0.78340
      H   87    0.21917      0.00000     0.77738    0.00345     0.78083
      H   88    0.22083      0.00000     0.77729    0.00188     0.77917
      H   89    0.21345      0.00000     0.78506    0.00150     0.78655
      H   90    0.22031      0.00000     0.77805    0.00164     0.77969
      H   91    0.21867      0.00000     0.77968    0.00165     0.78133
      H   92    0.21377      0.00000     0.78411    0.00212     0.78623
      H   93    0.22006      0.00000     0.77813    0.00181     0.77994
      H   94    0.22610      0.00000     0.77063    0.00328     0.77390
      H   95    0.21520      0.00000     0.78308    0.00172     0.78480
      H   96    0.21451      0.00000     0.78352    0.00198     0.78549
      H   97    0.19467      0.00000     0.80321    0.00211     0.80533
      H   98    0.21991      0.00000     0.77749    0.00260     0.78009
      H   99    0.22574      0.00000     0.77148    0.00279     0.77426
      H  100    0.21324      0.00000     0.78551    0.00125     0.78676
      H  101    0.19499      0.00000     0.80305    0.00196     0.80501
 =======================================================================
   * Total *   -0.00000    125.94552   284.72924    1.32524   412.00000

 Normal termination of Gaussian 16 at Mon Apr  3 02:43:39 2023.
