 Gaussian 16, Revision A.03,
 Gaussian 16:  ES64L-G16RevA.03 25-Dec-2016

 ---------------------------------------------------------------
 # PBE1PBE/def2TZVP empiricaldispersion=GD3BJ geom=check pop=nbo
 ---------------------------------------------------------------

 ----------
 1f1c_III_D
 ----------
 Structure from the checkpoint file:  "1f1c_III_D.chk"
 Charge =  1 Multiplicity = 2

                         Standard orientation:
 ---------------------------------------------------------------------
 Center     Atomic      Atomic             Coordinates (Angstroms)
 Number     Number       Type             X           Y           Z
 ---------------------------------------------------------------------
      1          6           0        2.551255   -2.130370    4.876773
      2          6           0        1.650938   -1.485267    3.874582
      3          7           0        0.364289   -1.092193    4.176306
      4          6           0        1.816836   -1.238250    2.552357
      5          6           0       -0.223007   -0.640455    3.082174
      6          7           0        0.636336   -0.718250    2.075670
      7          6           0        0.636726    3.418152   -4.485266
      8          6           0        0.779179    2.192340   -3.624389
      9          7           0        1.458397    1.062916   -4.035916
     10          6           0        0.327648    1.917668   -2.377018
     11          6           0        1.414251    0.148794   -3.078539
     12          7           0        0.735400    0.637792   -2.053542
     13         26           0        0.768103   -0.039259    0.029596
     14          6           0       -2.628643   -0.047628   -0.028444
     15          6           0        0.751890   -3.469574   -0.678998
     16          6           0        4.167631   -0.117307   -0.154649
     17          6           0        0.794094    3.137647    1.186437
     18          7           0       -0.619882   -1.417130   -0.349205
     19          6           0       -1.977192   -1.241080   -0.345085
     20          6           0       -2.629237   -2.501911   -0.577782
     21          6           0       -1.702544   -3.443020   -0.757571
     22          6           0       -0.457756   -2.784941   -0.572247
     23          6           0       -1.879632   -4.862494   -1.272410
     24          6           0       -4.100290   -2.736725   -0.653503
     25          6           0       -4.570678   -2.957052    0.760961
     26          6           0       -6.001751   -3.409627    0.806000
     27          8           0       -6.632078   -3.475479   -0.266631
     28          8           0       -6.496317   -3.697389    1.909630
     29          7           0        2.141990   -1.448090   -0.356183
     30          6           0        1.964567   -2.830640   -0.598880
     31          6           0        3.196240   -3.478808   -0.904116
     32          6           0        4.138460   -2.514393   -0.891824
     33          6           0        3.503401   -1.279904   -0.488136
     34          6           0        3.434235   -4.955848   -1.170757
     35          6           0        5.475266   -2.692701   -1.247479
     36          6           0        5.851373   -3.068074   -2.551233
     37          7           0        2.162224    1.218732    0.462113
     38          6           0        3.529361    1.026803    0.349277
     39          6           0        4.250373    2.178849    0.773326
     40          6           0        3.328497    3.132189    1.096083
     41          6           0        2.016096    2.498478    0.942057
     42          6           0        5.765875    2.302459    0.916179
     43          6           0        3.631381    4.413453    1.626621
     44          6           0        4.424838    5.354822    0.903478
     45          7           0       -0.618909    1.289306    0.425140
     46          6           0       -0.441577    2.585368    0.854214
     47          6           0       -1.685963    3.258268    1.007297
     48          6           0       -2.638506    2.367261    0.666619
     49          6           0       -1.981758    1.132045    0.332494
     50          6           0       -1.906983    4.642727    1.658487
     51          6           0       -4.144146    2.629521    0.557890
     52          6           0       -4.544383    3.157954   -0.818751
     53          6           0       -6.051420    3.347530   -0.966532
     54          8           0       -6.795814    2.350228   -0.972750
     55          8           0       -6.498346    4.506635   -1.072354
     56          1           0        1.603364    3.735732   -4.816405
     57          1           0        0.026485    3.189106   -5.333820
     58          1           0        0.179028    4.201319   -3.917761
     59          1           0       -0.242692    2.574373   -1.753840
     60          1           0        1.913095    0.952268   -4.919662
     61          1           0        1.855079   -0.825013   -3.126176
     62          1           0       -1.225882   -0.272821    3.019025
     63          1           0        2.705084   -1.415627    1.982748
     64          1           0       -0.058236   -1.141275    5.081328
     65          1           0        2.743954   -3.141456    4.584418
     66          1           0        3.474222   -1.591308    4.926202
     67          1           0        2.080526   -2.120463    5.837614
     68          1           0       -3.954962   -3.701333    1.221221
     69          1           0       -4.477342   -2.041084    1.306113
     70          1           0       -4.303521   -3.603481   -1.247078
     71          1           0       -4.587347   -1.881444   -1.073229
     72          1           0       -6.676400   -4.305375   -0.747158
     73          1           0       -6.576146    1.583957   -0.437798
     74          1           0       -4.209686    2.466515   -1.563593
     75          1           0       -4.061545    4.099109   -0.979981
     76          1           0       -4.669041    1.715885    0.744046
     77          1           0       -4.424881    3.347902    1.299521
     78          1           0       -3.697960   -0.038443   -0.065547
     79          1           0        0.734743   -4.528947   -0.828445
     80          1           0       -1.811233   -5.549515   -0.454961
     81          1           0       -2.838613   -4.956098   -1.737697
     82          1           0       -1.113685   -5.080902   -1.986918
     83          1           0       -1.073467    4.878602    2.286590
     84          1           0       -1.999120    5.385789    0.894112
     85          1           0       -2.801349    4.622083    2.245500
     86          1           0        0.810049    4.100578    1.652708
     87          1           0        5.228875   -0.086174   -0.287660
     88          1           0        3.546776   -5.472592   -0.240591
     89          1           0        2.600277   -5.360727   -1.705068
     90          1           0        4.323224   -5.074211   -1.754357
     91          1           0        6.173205    1.361528    1.222172
     92          1           0        6.190772    2.586260   -0.023938
     93          1           0        5.995433    3.046192    1.650390
     94          1           0        6.102901   -2.194364   -3.115382
     95          1           0        6.699486   -3.718773   -2.504375
     96          1           0        5.037576   -3.576371   -3.024803
     97          1           0        6.235197   -2.540144   -0.509827
     98          1           0        5.253860    4.850600    0.452498
     99          1           0        3.828977    5.813080    0.141999
    100          1           0        4.786287    6.106240    1.574020
    101          1           0        3.255811    4.680426    2.592319
 ---------------------------------------------------------------------

 SCF Done:  E(UPBE1PBE) =  -3628.61459485     A.U. after   83 cycles

 Alpha virt. eigenvalues --    1.06049   1.06369   1.06683   1.06809   1.07290
 Alpha virt. eigenvalues --    1.07662   1.07991   1.08254   1.08380   1.09124
 Alpha virt. eigenvalues --    1.09296   1.09317   1.09466   1.09829   1.10950

  Beta  occ. eigenvalues -- -256.42911 -30.19702 -26.02538 -26.02421 -26.01913
  Beta  occ. eigenvalues --  -19.32833 -19.32165 -19.24694 -19.23279 -14.53372
  Beta  occ. eigenvalues --  -14.53237 -14.48401 -14.47898 -14.47807 -14.47339
  Beta  occ. eigenvalues --  -14.46897 -14.46733 -10.41742 -10.41000 -10.37521
  Beta  occ. eigenvalues --  -10.37093 -10.36806 -10.35855 -10.35300 -10.34677
  Beta  occ. eigenvalues --  -10.34633 -10.34568 -10.34418 -10.34378 -10.34311
  Beta  occ. eigenvalues --  -10.34169 -10.33899 -10.33649 -10.33559 -10.32697
  Beta  occ. eigenvalues --  -10.32047 -10.31714 -10.31689 -10.31657 -10.31656
  Beta  occ. eigenvalues --  -10.31585 -10.31453 -10.31266 -10.31214 -10.31193
  Beta  occ. eigenvalues --  -10.31057 -10.30867 -10.30605 -10.30550 -10.30512
  Beta  occ. eigenvalues --  -10.30508 -10.30410 -10.30310 -10.30088 -10.29948
  Beta  occ. eigenvalues --  -10.29925 -10.29681 -10.29531 -10.28508  -3.53661
  Beta  occ. eigenvalues --   -2.29629  -2.29273  -2.28247  -1.23685  -1.23448
  Beta  occ. eigenvalues --   -1.15071  -1.15032  -1.09594  -1.08416  -1.08150
  Beta  occ. eigenvalues --   -1.07170  -1.06550  -1.05833  -0.99424  -0.99374
  Beta  occ. eigenvalues --   -0.96843  -0.93572  -0.93093  -0.92210  -0.91828
  Beta  occ. eigenvalues --   -0.91146  -0.90329  -0.89675  -0.89621  -0.89481
  Beta  occ. eigenvalues --   -0.87956  -0.86955  -0.85974  -0.85067  -0.84137
  Beta  occ. eigenvalues --   -0.82234  -0.81264  -0.80850  -0.80791  -0.80559
  Beta  occ. eigenvalues --   -0.79044  -0.77466  -0.76951  -0.76260  -0.75527
  Beta  occ. eigenvalues --   -0.74639  -0.73660  -0.73335  -0.73287  -0.73162
  Beta  occ. eigenvalues --   -0.71413  -0.70884  -0.70784  -0.69081  -0.67432
  Beta  occ. eigenvalues --   -0.66145  -0.65255  -0.65071  -0.64864  -0.64463
  Beta  occ. eigenvalues --   -0.63790  -0.62351  -0.61829  -0.61715  -0.60816
  Beta  occ. eigenvalues --   -0.60516  -0.60246  -0.58617  -0.58355  -0.57583
  Beta  occ. eigenvalues --   -0.57221  -0.57011  -0.56718  -0.56516  -0.56362
  Beta  occ. eigenvalues --   -0.56292  -0.56163  -0.55872  -0.55255  -0.55042
  Beta  occ. eigenvalues --   -0.54577  -0.54405  -0.54057  -0.53811  -0.53569
  Beta  occ. eigenvalues --   -0.53324  -0.53130  -0.52865  -0.52592  -0.52523
  Beta  occ. eigenvalues --   -0.52134  -0.52059  -0.51913  -0.51622  -0.51499
  Beta  occ. eigenvalues --   -0.51321  -0.51238  -0.51139  -0.50954  -0.50842
  Beta  occ. eigenvalues --   -0.50661  -0.50221  -0.50108  -0.49868  -0.49660
  Beta  occ. eigenvalues --   -0.49331  -0.49143  -0.49076  -0.48728  -0.48304
  Beta  occ. eigenvalues --   -0.48070  -0.47878  -0.47784  -0.47292  -0.47101
  Beta  occ. eigenvalues --   -0.46998  -0.46578  -0.46274  -0.45701  -0.45464
  Beta  occ. eigenvalues --   -0.44804  -0.44432  -0.44212  -0.43113  -0.42817
  Beta  occ. eigenvalues --   -0.42623  -0.42077  -0.41525  -0.41396  -0.41237
  Beta  occ. eigenvalues --   -0.40862  -0.40369  -0.40019  -0.38906  -0.38399
  Beta  occ. eigenvalues --   -0.38139  -0.37816  -0.36361  -0.35114  -0.34582
  Beta  occ. eigenvalues --   -0.34142  -0.33329  -0.33098  -0.32813  -0.32447
  Beta  occ. eigenvalues --   -0.31315  -0.29389  -0.29199  -0.28698  -0.26810
  Beta virt. eigenvalues --   -0.21832  -0.16901  -0.16471  -0.13465  -0.10122
  Beta virt. eigenvalues --   -0.08717  -0.08400  -0.07328  -0.06790  -0.06217
  Beta virt. eigenvalues --   -0.06117  -0.05488  -0.05012  -0.04827  -0.04754

 Mulliken charges and spin densities:
               1          2
     1  C   -0.347487  -0.000161
     2  C    0.094316  -0.000475
     3  N   -0.204584   0.000043
     4  C   -0.123243  -0.000446
     5  C    0.018606   0.000382
     6  N   -0.057067  -0.003839
     7  C   -0.372258  -0.000125
     8  C    0.130409   0.000933
     9  N   -0.205633  -0.000648
    10  C   -0.154672  -0.001726
    11  C    0.029264  -0.001675
    12  N   -0.086942   0.000506
    13  Fe  -0.296857   0.237959
    14  C   -0.474137  -0.015032
    15  C   -0.497293   0.001449
    16  C   -0.500837   0.074876
    17  C   -0.480859   0.056915
    18  N    0.059135  -0.008901
    19  C    0.147465  -0.025445
    20  C    0.140421  -0.007026
    21  C   -0.152892   0.002416
    22  C    0.306281  -0.031113
    23  C   -0.395918  -0.000200
    24  C   -0.296037   0.001397
    25  C   -0.219342  -0.000995
    26  C    0.273313  -0.000140
    27  O   -0.346261  -0.000020
    28  O   -0.319994  -0.000266
    29  N   -0.063090   0.065924
    30  C    0.262717  -0.054550
    31  C   -0.075007   0.086117
    32  C    0.069186  -0.035369
    33  C    0.136400  -0.068723
    34  C   -0.349227  -0.004423
    35  C   -0.173732   0.079491
    36  C   -0.321207  -0.006302
    37  N    0.077918   0.046598
    38  C    0.276766  -0.096044
    39  C   -0.062827   0.196854
    40  C    0.049284  -0.190914
    41  C    0.180868  -0.052651
    42  C   -0.432441  -0.013056
    43  C   -0.259546   0.856034
    44  C   -0.304691  -0.063227
    45  N    0.027509   0.018058
    46  C    0.250240  -0.077457
    47  C   -0.083083   0.020599
    48  C    0.093607  -0.029644
    49  C    0.190155  -0.018754
    50  C   -0.382947  -0.001601
    51  C   -0.358301   0.003687
    52  C   -0.223058  -0.001991
    53  C    0.301463  -0.000241
    54  O   -0.284975  -0.000013
    55  O   -0.345798  -0.000434
    56  H    0.141635   0.000023
    57  H    0.151546   0.000034
    58  H    0.148368   0.000011
    59  H    0.148979   0.000156
    60  H    0.239315   0.000144
    61  H    0.160132   0.000331
    62  H    0.165260  -0.000097
    63  H    0.146653  -0.000319
    64  H    0.242151  -0.000006
    65  H    0.149658   0.000011
    66  H    0.151478   0.000007
    67  H    0.127766  -0.000017
    68  H    0.147025   0.000025
    69  H    0.128901   0.000089
    70  H    0.083647  -0.000079
    71  H    0.126748  -0.000341
    72  H    0.361746  -0.000011
    73  H    0.338627  -0.000003
    74  H    0.136413   0.000206
    75  H    0.129447   0.000102
    76  H    0.103759  -0.000592
    77  H    0.135085  -0.000316
    78  H    0.097777   0.000689
    79  H    0.151887   0.000073
    80  H    0.155624  -0.000067
    81  H    0.131080  -0.000016
    82  H    0.137513  -0.000055
    83  H    0.134000   0.000266
    84  H    0.156968   0.000441
    85  H    0.143088   0.000247
    86  H    0.120993   0.001866
    87  H    0.134326  -0.003072
    88  H    0.162816   0.003597
    89  H    0.143140   0.000977
    90  H    0.135495   0.000265
    91  H    0.134819   0.002161
    92  H    0.155314   0.005842
    93  H    0.163785   0.005578
    94  H    0.177503   0.004722
    95  H    0.154718   0.001590
    96  H    0.151434   0.000869
    97  H    0.165424  -0.004713
    98  H    0.139355   0.030808
    99  H    0.143989   0.053537
   100  H    0.136991   0.004190
   101  H    0.144542  -0.045767
 Sum of Mulliken charges =   1.00000   1.00000

 Dipole moment (field-independent basis, Debye):
    X=             15.0696    Y=             -6.2769    Z=             -2.8380  Tot=             16.5694
 Quadrupole moment (field-independent basis, Debye-Ang):
   XX=           -280.5227   YY=           -268.4213   ZZ=           -254.2394
   XY=             14.7396   XZ=             -8.8857   YZ=             21.3341

 Summary of Natural Population Analysis:

                                       Natural Population
                Natural  -----------------------------------------------
    Atom  No    Charge         Core      Valence    Rydberg      Total
 -----------------------------------------------------------------------
      C    1   -0.32039      0.99969     2.31746    0.00323     3.32039
      C    2    0.05486      0.99955     1.93627    0.00932     2.94514
      N    3   -0.23740      0.99968     2.72752    0.01020     3.73740
      C    4   -0.03873      0.99944     2.03017    0.00912     3.03873
      C    5    0.09269      0.99967     1.89768    0.00996     2.90731
      N    6   -0.18191      0.99970     2.65766    0.02454     3.68191
      C    7   -0.32023      0.99969     2.31745    0.00309     3.32023
      C    8    0.05675      0.99954     1.93441    0.00931     2.94325
      N    9   -0.24106      0.99968     2.73137    0.01001     3.74106
      C   10   -0.03921      0.99944     2.03013    0.00964     3.03921
      C   11    0.09513      0.99968     1.89547    0.00973     2.90487
      N   12   -0.18215      0.99971     2.65860    0.02384     3.68215
     Fe   13    0.22541      8.99452     3.75613    0.02393    12.77459
      C   14   -0.12871      0.99950     2.12052    0.00868     3.12871
      C   15   -0.11300      0.99947     2.10529    0.00825     3.11300
      C   16   -0.09961      0.99949     2.09169    0.00843     3.09961
      C   17   -0.09402      0.99950     2.08694    0.00757     3.09402
      N   18   -0.18034      0.99967     2.65730    0.02336     3.68034
      C   19    0.07601      0.99952     1.91412    0.01034     2.92399
      C   20   -0.01253      0.99941     2.00320    0.00992     3.01253
      C   21   -0.01664      0.99935     2.00867    0.00863     3.01664
      C   22    0.07446      0.99949     1.91573    0.01032     2.92554
      C   23   -0.31800      0.99970     2.31473    0.00357     3.31800
      C   24   -0.21354      0.99967     2.20625    0.00762     3.21354
      C   25   -0.25488      0.99963     2.24663    0.00863     3.25488
      C   26    0.38140      0.99974     1.60070    0.01816     2.61860
      O   27   -0.34391      0.99979     3.32939    0.01473     4.34391
      O   28   -0.27309      0.99989     3.26134    0.01185     4.27309
      N   29   -0.14760      0.99970     2.62585    0.02205     3.64760
      C   30    0.04987      0.99947     1.94043    0.01022     2.95013
      C   31    0.04538      0.99939     1.94635    0.00888     2.95462
      C   32   -0.08935      0.99942     2.07868    0.01125     3.08935
      C   33    0.05613      0.99952     1.93365    0.01070     2.94387
      C   34   -0.32140      0.99970     2.31542    0.00628     3.32140
      C   35    0.07197      0.99963     1.91899    0.00940     2.92803
      C   36   -0.34798      0.99968     2.34049    0.00781     3.34798
      N   37   -0.15924      0.99965     2.63736    0.02222     3.65924
      C   38    0.04668      0.99950     1.94370    0.01012     2.95332
      C   39    0.07681      0.99941     1.91546    0.00832     2.92319
      C   40   -0.12424      0.99947     2.11454    0.01023     3.12424
      C   41    0.07846      0.99955     1.91206    0.00994     2.92154
      C   42   -0.32599      0.99970     2.32270    0.00359     3.32599
      C   43    0.36207      0.99964     1.63077    0.00752     2.63793
      C   44   -0.35808      0.99970     2.35163    0.00676     3.35808
      N   45   -0.17731      0.99966     2.65564    0.02200     3.67731
      C   46    0.04440      0.99950     1.94561    0.01049     2.95560
      C   47    0.00024      0.99936     1.99179    0.00861     2.99976
      C   48   -0.03167      0.99940     2.02256    0.00971     3.03167
      C   49    0.07583      0.99951     1.91454    0.01012     2.92417
      C   50   -0.31728      0.99970     2.31399    0.00360     3.31728
      C   51   -0.20810      0.99966     2.20157    0.00687     3.20810
      C   52   -0.25321      0.99963     2.24507    0.00851     3.25321
      C   53    0.37831      0.99976     1.60414    0.01779     2.62169
      O   54   -0.31697      0.99980     3.30135    0.01582     4.31697
      O   55   -0.28161      0.99989     3.26960    0.01212     4.28161
      H   56    0.11210      0.00000     0.38723    0.00067     0.38790
      H   57    0.11416      0.00000     0.38517    0.00067     0.38584
      H   58    0.11944      0.00000     0.38010    0.00046     0.38056
      H   59    0.11584      0.00000     0.38329    0.00087     0.38416
      H   60    0.20937      0.00000     0.28981    0.00082     0.29063
      H   61    0.10803      0.00000     0.39107    0.00090     0.39197
      H   62    0.11034      0.00000     0.38882    0.00084     0.38966
      H   63    0.11437      0.00000     0.38475    0.00088     0.38563
      H   64    0.21085      0.00000     0.28834    0.00081     0.28915
      H   65    0.11649      0.00000     0.38291    0.00060     0.38351
      H   66    0.11740      0.00000     0.38203    0.00058     0.38260
      H   67    0.11073      0.00000     0.38869    0.00058     0.38927
      H   68    0.12146      0.00000     0.37792    0.00062     0.37854
      H   69    0.11822      0.00000     0.38113    0.00065     0.38178
      H   70    0.10663      0.00000     0.39244    0.00094     0.39337
      H   71    0.10850      0.00000     0.39050    0.00100     0.39150
      H   72    0.26101      0.00000     0.23781    0.00118     0.23899
      H   73    0.24926      0.00000     0.24982    0.00093     0.25074
      H   74    0.10907      0.00000     0.39019    0.00074     0.39093
      H   75    0.11953      0.00000     0.37974    0.00073     0.38047
      H   76    0.09631      0.00000     0.40269    0.00100     0.40369
      H   77    0.11504      0.00000     0.38407    0.00089     0.38496
      H   78    0.10629      0.00000     0.39218    0.00153     0.39371
      H   79    0.11284      0.00000     0.38595    0.00121     0.38716
      H   80    0.11352      0.00000     0.38574    0.00074     0.38648
      H   81    0.11056      0.00000     0.38865    0.00079     0.38944
      H   82    0.11191      0.00000     0.38738    0.00071     0.38809
      H   83    0.11035      0.00000     0.38905    0.00060     0.38965
      H   84    0.11545      0.00000     0.38384    0.00070     0.38455
      H   85    0.11389      0.00000     0.38537    0.00073     0.38611
      H   86    0.11268      0.00000     0.38610    0.00122     0.38732
      H   87    0.11025      0.00000     0.38844    0.00131     0.38975
      H   88    0.12032      0.00000     0.37904    0.00064     0.37968
      H   89    0.11532      0.00000     0.38414    0.00054     0.38468
      H   90    0.11086      0.00000     0.38850    0.00063     0.38914
      H   91    0.11175      0.00000     0.38755    0.00070     0.38825
      H   92    0.11508      0.00000     0.38422    0.00070     0.38492
      H   93    0.11696      0.00000     0.38241    0.00063     0.38304
      H   94    0.13795      0.00000     0.36122    0.00083     0.36205
      H   95    0.12238      0.00000     0.37697    0.00065     0.37762
      H   96    0.11816      0.00000     0.38106    0.00078     0.38184
      H   97    0.10369      0.00000     0.39535    0.00095     0.39631
      H   98    0.12643      0.00000     0.37295    0.00062     0.37357
      H   99    0.14441      0.00000     0.35513    0.00046     0.35559
      H  100    0.11644      0.00000     0.38307    0.00049     0.38356
      H  101    0.08489      0.00000     0.41425    0.00086     0.41511
 =======================================================================
   * Total *    1.00000     62.97284   141.38387    0.64329   205.00000

 Normal termination of Gaussian 16 at Fri Apr  7 02:53:49 2023.
