 Gaussian 16, Revision A.03,
 Gaussian 16:  ES64L-G16RevA.03 25-Dec-2016

 ----------------------------------------------------------------------
 # PBE1PBE/def2TZVP empiricaldispersion=GD3BJ scf=maxcycle=999 geom=che
 ck pop=nbo
 ----------------------------------------------------------------------

 ----------
 1hrc_III_H
 ----------
 Structure from the checkpoint file:  "1hrc_III_H.chk"
 Charge =  1 Multiplicity = 6

                         Standard orientation:
 ---------------------------------------------------------------------
 Center     Atomic      Atomic             Coordinates (Angstroms)
 Number     Number       Type             X           Y           Z
 ---------------------------------------------------------------------
      1          6           0        2.642834   -1.895760    4.972058
      2          6           0        1.853316   -1.355108    3.810748
      3          7           0        0.479928   -1.217990    3.904029
      4          6           0        2.203621   -0.951947    2.609410
      5          6           0        0.046710   -0.771455    2.687987
      6          7           0        1.075740   -0.582515    1.906615
      7          6           0       -0.857788    2.929897   -2.547235
      8          6           0        0.502389    2.157412   -2.526621
      9         16           0        0.324986    0.392981   -2.272802
     10          6           0        1.545230   -0.284456   -3.421113
     11         26           0        0.804155   -0.076535   -0.048002
     12          6           0       -2.674692    0.025225   -0.125072
     13          6           0        0.712643   -3.391592   -0.310979
     14          6           0        4.141500   -0.012262   -0.745658
     15          6           0        0.925975    3.118551    1.016369
     16          7           0       -0.714489   -1.390555   -0.140275
     17          6           0       -2.069221   -1.205432   -0.227295
     18          6           0       -2.673559   -2.498337   -0.541725
     19          6           0       -1.755435   -3.408609   -0.606944
     20          6           0       -0.483787   -2.752762   -0.364662
     21          6           0       -1.633357   -4.956017   -0.859426
     22          6           0       -4.219168   -2.657461   -0.723425
     23          6           0       -4.796593   -3.249718    0.628269
     24          6           0       -6.258763   -3.567668    0.615171
     25          8           0       -6.821763   -3.562758    1.763040
     26          8           0       -6.807076   -3.811403   -0.488724
     27          7           0        2.140777   -1.437147   -0.445604
     28          6           0        1.947435   -2.811263   -0.460850
     29          6           0        3.181204   -3.487251   -0.681681
     30          6           0        4.134179   -2.565393   -0.824466
     31          6           0        3.514456   -1.239692   -0.644053
     32          6           0        3.355679   -5.040939   -0.764406
     33          6           0        5.630678   -2.744187   -1.097873
     34          6           0        6.113936   -3.114881   -2.500953
     35          7           0        2.274771    1.324056    0.081992
     36          6           0        3.614784    1.168685   -0.247959
     37          6           0        4.317795    2.363111    0.090016
     38          6           0        3.428847    3.273978    0.571328
     39          6           0        2.139655    2.593163    0.614604
     40          6           0        5.842977    2.587277   -0.096677
     41          6           0        3.702188    4.667371    1.173216
     42          6           0        4.675366    5.609660    0.431142
     43          7           0       -0.559494    1.292989    0.391492
     44          6           0       -0.318610    2.570039    0.819674
     45          6           0       -1.598622    3.248593    0.967952
     46          6           0       -2.553423    2.413805    0.651602
     47          6           0       -1.956225    1.155040    0.252229
     48          6           0       -1.711328    4.717842    1.449936
     49          6           0       -4.093205    2.663530    0.657149
     50          6           0       -4.469333    3.322268   -0.678557
     51          6           0       -5.899871    3.724771   -0.870937
     52          8           0       -6.776375    3.471110   -0.043974
     53          8           0       -6.055118    4.300452   -1.972156
     54          1           0        2.358214   -2.910834    5.155133
     55          1           0        3.687323   -1.853862    4.743614
     56          1           0        2.444374   -1.307029    5.843213
     57          1           0       -0.085953   -1.408772    4.706140
     58          1           0       -0.974924   -0.603020    2.418184
     59          1           0        3.205633   -0.916071    2.235799
     60          1           0       -1.114263    3.227152   -1.551865
     61          1           0       -0.765664    3.797881   -3.166119
     62          1           0       -1.623777    2.293025   -2.937820
     63          1           0        1.000977    2.319497   -3.459380
     64          1           0        1.109176    2.555880   -1.740534
     65          1           0        1.773324   -1.292803   -3.145232
     66          1           0        1.148013   -0.267625   -4.414509
     67          1           0        2.436769    0.306000   -3.383428
     68          1           0        3.117097   -5.477578    0.182866
     69          1           0        2.700513   -5.434039   -1.513491
     70          1           0        4.368670   -5.273031   -1.019128
     71          1           0        0.691168   -4.446854   -0.135302
     72          1           0       -1.871789   -5.484079    0.040130
     73          1           0       -2.312582   -5.245733   -1.633776
     74          1           0       -0.632638   -5.191087   -1.156418
     75          1           0       -3.718998    0.115388   -0.340005
     76          1           0       -1.030678    4.880919    2.259269
     77          1           0       -1.470229    5.377509    0.642711
     78          1           0       -2.710863    4.909101    1.780467
     79          1           0        0.959037    4.053002    1.536569
     80          1           0        6.377479    1.746717    0.294049
     81          1           0        6.062529    2.696784   -1.138168
     82          1           0        6.139870    3.472795    0.425447
     83          1           0       -4.260689   -4.147251    0.856614
     84          1           0       -4.614912   -2.541032    1.409074
     85          1           0       -4.423353   -3.328673   -1.531313
     86          1           0       -4.662318   -1.703894   -0.921484
     87          1           0       -7.079462   -4.706893   -0.702037
     88          1           0       -5.432422    4.146315   -2.686362
     89          1           0       -3.865355    4.198140   -0.792395
     90          1           0       -4.213496    2.640504   -1.462549
     91          1           0       -4.610678    1.732675    0.760258
     92          1           0       -4.351769    3.313388    1.466921
     93          1           0        6.263186   -4.172837   -2.558857
     94          1           0        5.380045   -2.818283   -3.220907
     95          1           0        7.036637   -2.612839   -2.704611
     96          1           0        6.338494   -2.609674   -0.306796
     97          1           0        5.674705    5.240385    0.530430
     98          1           0        4.411594    5.650706   -0.605024
     99          1           0        4.613972    6.590664    0.853945
    100          1           0        3.229173    4.973860    2.082733
    101          1           0        5.090544    0.028471   -1.238159
 ---------------------------------------------------------------------

 SCF Done:  E(UPBE1PBE) =  -3880.35472437     A.U. after   68 cycles

 Alpha virt. eigenvalues --    0.94357   0.94539   0.94850   0.94936   0.95276
 Alpha virt. eigenvalues --    0.95610   0.95817   0.96221   0.96298   0.96587
 Alpha virt. eigenvalues --    0.96876   0.97015   0.97295   0.97520   0.98071

  Beta  occ. eigenvalues -- -256.51594 -89.13451 -30.26171 -26.10290 -26.08952
  Beta  occ. eigenvalues --  -26.08169 -19.33360 -19.32948 -19.24936 -19.24915
  Beta  occ. eigenvalues --  -14.54328 -14.50268 -14.50077 -14.49559 -14.47978
  Beta  occ. eigenvalues --  -14.47837 -10.42536 -10.41929 -10.38831 -10.36473
  Beta  occ. eigenvalues --  -10.36471 -10.35898 -10.35823 -10.35809 -10.35745
  Beta  occ. eigenvalues --  -10.35661 -10.35566 -10.35258 -10.34187 -10.33692
  Beta  occ. eigenvalues --  -10.33276 -10.33171 -10.33148 -10.33022 -10.32705
  Beta  occ. eigenvalues --  -10.32685 -10.32542 -10.32511 -10.32428 -10.32371
  Beta  occ. eigenvalues --  -10.32281 -10.32172 -10.32050 -10.32024 -10.31814
  Beta  occ. eigenvalues --  -10.31747 -10.31472 -10.31326 -10.31068 -10.30865
  Beta  occ. eigenvalues --  -10.30723 -10.30642 -10.30459 -10.30130 -10.30075
  Beta  occ. eigenvalues --  -10.29570 -10.29502  -8.11385  -6.05013  -6.04710
  Beta  occ. eigenvalues --   -6.04242  -3.56756  -2.34301  -2.30291  -2.29798
  Beta  occ. eigenvalues --   -1.24014  -1.23248  -1.16078  -1.10673  -1.09181
  Beta  occ. eigenvalues --   -1.08326  -1.08294  -1.07682  -1.06823  -1.01340
  Beta  occ. eigenvalues --   -0.94731  -0.94373  -0.93151  -0.92554  -0.92063
  Beta  occ. eigenvalues --   -0.91626  -0.91263  -0.90881  -0.90641  -0.88301
  Beta  occ. eigenvalues --   -0.87611  -0.86687  -0.86482  -0.85532  -0.84501
  Beta  occ. eigenvalues --   -0.83399  -0.82429  -0.82057  -0.81417  -0.81036
  Beta  occ. eigenvalues --   -0.79453  -0.78100  -0.77709  -0.77647  -0.76535
  Beta  occ. eigenvalues --   -0.76207  -0.74819  -0.74501  -0.73959  -0.71762
  Beta  occ. eigenvalues --   -0.71630  -0.71098  -0.70809  -0.70056  -0.68883
  Beta  occ. eigenvalues --   -0.66830  -0.65798  -0.64837  -0.64570  -0.64026
  Beta  occ. eigenvalues --   -0.62868  -0.62592  -0.61688  -0.61214  -0.59920
  Beta  occ. eigenvalues --   -0.59416  -0.59237  -0.59144  -0.58818  -0.58615
  Beta  occ. eigenvalues --   -0.58347  -0.57602  -0.57465  -0.57071  -0.56370
  Beta  occ. eigenvalues --   -0.56022  -0.55342  -0.55035  -0.54833  -0.54654
  Beta  occ. eigenvalues --   -0.54530  -0.54273  -0.53977  -0.53854  -0.53731
  Beta  occ. eigenvalues --   -0.53524  -0.53282  -0.53063  -0.52885  -0.52502
  Beta  occ. eigenvalues --   -0.52367  -0.52252  -0.52118  -0.51869  -0.51827
  Beta  occ. eigenvalues --   -0.51541  -0.51244  -0.50845  -0.50678  -0.50589
  Beta  occ. eigenvalues --   -0.50236  -0.49980  -0.49728  -0.49581  -0.49420
  Beta  occ. eigenvalues --   -0.49244  -0.48778  -0.48582  -0.48211  -0.48024
  Beta  occ. eigenvalues --   -0.47671  -0.47628  -0.47462  -0.47249  -0.47001
  Beta  occ. eigenvalues --   -0.46666  -0.46437  -0.46100  -0.45947  -0.45807
  Beta  occ. eigenvalues --   -0.45340  -0.45058  -0.44609  -0.44370  -0.44111
  Beta  occ. eigenvalues --   -0.43992  -0.43447  -0.43226  -0.42838  -0.42436
  Beta  occ. eigenvalues --   -0.41856  -0.41043  -0.40038  -0.39617  -0.39084
  Beta  occ. eigenvalues --   -0.38721  -0.38432  -0.36998  -0.35992  -0.35400
  Beta  occ. eigenvalues --   -0.34998  -0.34880  -0.34551  -0.33574  -0.33030
  Beta  occ. eigenvalues --   -0.30121  -0.29571
  Beta virt. eigenvalues --   -0.19588  -0.18599  -0.17532  -0.15470  -0.13754
  Beta virt. eigenvalues --   -0.13020  -0.11000  -0.10480  -0.10068  -0.08883
  Beta virt. eigenvalues --   -0.08263  -0.06997  -0.06720  -0.06371  -0.05905

 Mulliken charges and spin densities:
               1          2
     1  C   -0.372601   0.000644
     2  C    0.180946   0.003264
     3  N   -0.219567   0.001219
     4  C   -0.223029   0.000698
     5  C    0.019361   0.004841
     6  N    0.053354   0.013382
     7  C   -0.357123  -0.001761
     8  C   -0.166372   0.003448
     9  S    0.059515   0.032945
    10  C   -0.400543   0.000263
    11  Fe  -0.358456   2.992440
    12  C   -0.446329  -0.030780
    13  C   -0.492890   0.000446
    14  C   -0.527772   0.048432
    15  C   -0.431062   0.001510
    16  N   -0.040489   0.015775
    17  C    0.229655   0.033892
    18  C    0.039967   0.004999
    19  C   -0.082484   0.018294
    20  C    0.249434   0.009147
    21  C   -0.380513  -0.000403
    22  C   -0.305581   0.000269
    23  C   -0.201018   0.000255
    24  C    0.287527   0.000057
    25  O   -0.344884   0.000123
    26  O   -0.351147   0.000011
    27  N    0.060596  -0.064376
    28  C    0.253098   0.003483
    29  C   -0.045749   0.028893
    30  C    0.076663  -0.083152
    31  C    0.171438  -0.005733
    32  C   -0.394860   0.002409
    33  C   -0.299117   1.041611
    34  C   -0.339691  -0.065480
    35  N   -0.050295   0.053758
    36  C    0.255507  -0.037342
    37  C   -0.064112   0.184321
    38  C    0.028812  -0.160132
    39  C    0.174165   0.030526
    40  C   -0.351735  -0.005491
    41  C   -0.246327   0.967983
    42  C   -0.318525  -0.065461
    43  N    0.115470  -0.092368
    44  C    0.222725   0.011932
    45  C   -0.109589   0.004989
    46  C    0.122795  -0.005666
    47  C    0.146075   0.034256
    48  C   -0.401362  -0.000942
    49  C   -0.291589  -0.000384
    50  C   -0.335242   0.000106
    51  C    0.331097  -0.000027
    52  O   -0.331329   0.000007
    53  O   -0.289221  -0.000003
    54  H    0.151697   0.000231
    55  H    0.147115  -0.000001
    56  H    0.149340  -0.000022
    57  H    0.251384   0.001052
    58  H    0.184965   0.000460
    59  H    0.148882   0.000534
    60  H    0.128694   0.000247
    61  H    0.143602  -0.000188
    62  H    0.120359   0.000571
    63  H    0.153793   0.001137
    64  H    0.140291   0.001219
    65  H    0.164895   0.000263
    66  H    0.177500   0.001292
    67  H    0.156005   0.000151
    68  H    0.145742   0.000534
    69  H    0.150192  -0.000091
    70  H    0.151516  -0.001250
    71  H    0.168115   0.000286
    72  H    0.152488   0.000564
    73  H    0.148342   0.000472
    74  H    0.136793   0.000071
    75  H    0.138435   0.001598
    76  H    0.145225   0.000110
    77  H    0.153857   0.000392
    78  H    0.150056  -0.000192
    79  H    0.119461   0.005581
    80  H    0.148228   0.003393
    81  H    0.144360   0.005337
    82  H    0.125852  -0.000710
    83  H    0.132851  -0.000012
    84  H    0.136468   0.000063
    85  H    0.123569   0.000282
    86  H    0.126253  -0.000057
    87  H    0.364243   0.000002
    88  H    0.347330   0.000000
    89  H    0.152601   0.000007
    90  H    0.133568  -0.000011
    91  H    0.132958  -0.000070
    92  H    0.146875  -0.000127
    93  H    0.143957   0.047935
    94  H    0.131194   0.008268
    95  H    0.142961   0.015917
    96  H    0.155033  -0.048026
    97  H    0.126070   0.040223
    98  H    0.138338   0.025359
    99  H    0.144133   0.002142
   100  H    0.154032  -0.046552
   101  H    0.162783   0.000491
 Sum of Mulliken charges =   1.00000   5.00000

 Dipole moment (field-independent basis, Debye):
    X=             10.0960    Y=             -2.5603    Z=             -2.2519  Tot=             10.6562
 Quadrupole moment (field-independent basis, Debye-Ang):
   XX=           -309.6870   YY=           -242.3903   ZZ=           -270.0870
   XY=             17.5508   XZ=             27.3493   YZ=             -0.9562

 Summary of Natural Population Analysis:

                                       Natural Population
                Natural  -----------------------------------------------
    Atom  No    Charge         Core      Valence    Rydberg      Total
 -----------------------------------------------------------------------
      C    1   -0.31925      0.99970     2.31648    0.00307     3.31925
      C    2    0.06607      0.99945     1.92575    0.00873     2.93393
      N    3   -0.24239      0.99971     2.73354    0.00913     3.74239
      C    4   -0.04114      0.99932     2.03196    0.00987     3.04114
      C    5    0.11322      0.99963     1.87684    0.01030     2.88678
      N    6   -0.17590      0.99969     2.64668    0.02954     3.67590
      C    7   -0.30596      0.99972     2.30210    0.00414     3.30596
      C    8   -0.27010      0.99966     2.26062    0.00982     3.27010
      S    9    0.31567      4.99917     2.66338    0.02178     7.68433
      C   10   -0.36943      0.99964     2.36115    0.00864     3.36943
     Fe   11    1.57084      8.99535     2.40155    0.03226    11.42916
      C   12   -0.13495      0.99945     2.12701    0.00849     3.13495
      C   13   -0.11898      0.99944     2.11092    0.00861     3.11898
      C   14   -0.10194      0.99947     2.09440    0.00808     3.10194
      C   15   -0.11632      0.99947     2.10898    0.00787     3.11632
      N   16   -0.18695      0.99969     2.66926    0.01799     3.68695
      C   17    0.10189      0.99952     1.88856    0.01003     2.89811
      C   18   -0.00904      0.99927     1.99977    0.01001     3.00904
      C   19    0.00572      0.99908     1.98387    0.01133     2.99428
      C   20    0.09038      0.99949     1.89953    0.01060     2.90962
      C   21   -0.31651      0.99969     2.31352    0.00329     3.31651
      C   22   -0.20658      0.99968     2.20098    0.00592     3.20658
      C   23   -0.25092      0.99962     2.24283    0.00846     3.25092
      C   24    0.37982      0.99972     1.60339    0.01706     2.62018
      O   25   -0.27851      0.99990     3.26782    0.01079     4.27851
      O   26   -0.34060      0.99980     3.32641    0.01440     4.34060
      N   27   -0.22791      0.99967     2.70253    0.02571     3.72791
      C   28    0.07712      0.99947     1.91274    0.01068     2.92288
      C   29    0.00928      0.99931     1.98339    0.00802     2.99072
      C   30   -0.07148      0.99938     2.06227    0.00984     3.07148
      C   31    0.09154      0.99950     1.89893    0.01002     2.90846
      C   32   -0.31545      0.99969     2.31242    0.00334     3.31545
      C   33    0.44567      0.99973     1.54997    0.00463     2.55433
      C   34   -0.36061      0.99972     2.35757    0.00332     3.36061
      N   35   -0.17264      0.99971     2.65470    0.01822     3.67264
      C   36    0.06094      0.99950     1.92973    0.00984     2.93906
      C   37    0.07874      0.99938     1.91380    0.00808     2.92126
      C   38   -0.10526      0.99940     2.09658    0.00928     3.10526
      C   39    0.11083      0.99952     1.87995    0.00970     2.88917
      C   40   -0.31985      0.99969     2.31682    0.00334     3.31985
      C   41    0.40992      0.99973     1.58599    0.00435     2.59008
      C   42   -0.35626      0.99972     2.35321    0.00333     3.35626
      N   43   -0.24719      0.99967     2.72045    0.02707     3.74719
      C   44    0.08603      0.99950     1.90322    0.01125     2.91397
      C   45   -0.00687      0.99929     1.99879    0.00879     3.00687
      C   46   -0.01473      0.99928     2.00563    0.00982     3.01473
      C   47    0.09635      0.99949     1.89405    0.01010     2.90365
      C   48   -0.31839      0.99970     2.31507    0.00362     3.31839
      C   49   -0.20630      0.99968     2.19906    0.00756     3.20630
      C   50   -0.26055      0.99963     2.25232    0.00860     3.26055
      C   51    0.38194      0.99972     1.60105    0.01729     2.61806
      O   52   -0.27938      0.99989     3.26707    0.01242     4.27938
      O   53   -0.31586      0.99981     3.30091    0.01514     4.31586
      H   54    0.11473      0.00000     0.38463    0.00064     0.38527
      H   55    0.11890      0.00000     0.38064    0.00046     0.38110
      H   56    0.11439      0.00000     0.38496    0.00065     0.38561
      H   57    0.21382      0.00000     0.28541    0.00077     0.28618
      H   58    0.11505      0.00000     0.38403    0.00092     0.38495
      H   59    0.11658      0.00000     0.38270    0.00072     0.38342
      H   60    0.10892      0.00000     0.38989    0.00119     0.39108
      H   61    0.11111      0.00000     0.38826    0.00063     0.38889
      H   62    0.10713      0.00000     0.39201    0.00087     0.39287
      H   63    0.11732      0.00000     0.38203    0.00065     0.38268
      H   64    0.11835      0.00000     0.38044    0.00121     0.38165
      H   65    0.12226      0.00000     0.37716    0.00058     0.37774
      H   66    0.11755      0.00000     0.38192    0.00053     0.38245
      H   67    0.11429      0.00000     0.38489    0.00082     0.38571
      H   68    0.11284      0.00000     0.38650    0.00067     0.38716
      H   69    0.11231      0.00000     0.38704    0.00065     0.38769
      H   70    0.11592      0.00000     0.38345    0.00063     0.38408
      H   71    0.11708      0.00000     0.38183    0.00109     0.38292
      H   72    0.11352      0.00000     0.38578    0.00071     0.38648
      H   73    0.11456      0.00000     0.38474    0.00070     0.38544
      H   74    0.11075      0.00000     0.38855    0.00070     0.38925
      H   75    0.11909      0.00000     0.37971    0.00120     0.38091
      H   76    0.11254      0.00000     0.38684    0.00062     0.38746
      H   77    0.11358      0.00000     0.38574    0.00068     0.38642
      H   78    0.11464      0.00000     0.38467    0.00068     0.38536
      H   79    0.11740      0.00000     0.38140    0.00120     0.38260
      H   80    0.11440      0.00000     0.38497    0.00063     0.38560
      H   81    0.11582      0.00000     0.38355    0.00063     0.38418
      H   82    0.11277      0.00000     0.38653    0.00069     0.38723
      H   83    0.11714      0.00000     0.38223    0.00063     0.38286
      H   84    0.11875      0.00000     0.38059    0.00066     0.38125
      H   85    0.11333      0.00000     0.38583    0.00084     0.38667
      H   86    0.10693      0.00000     0.39241    0.00067     0.39307
      H   87    0.26254      0.00000     0.23632    0.00115     0.23746
      H   88    0.25108      0.00000     0.24795    0.00097     0.24892
      H   89    0.11193      0.00000     0.38734    0.00073     0.38807
      H   90    0.10782      0.00000     0.39136    0.00083     0.39218
      H   91    0.11372      0.00000     0.38552    0.00076     0.38628
      H   92    0.11850      0.00000     0.38075    0.00075     0.38150
      H   93    0.13677      0.00000     0.36268    0.00055     0.36323
      H   94    0.11299      0.00000     0.38640    0.00061     0.38701
      H   95    0.12234      0.00000     0.37715    0.00051     0.37766
      H   96    0.08078      0.00000     0.41840    0.00082     0.41922
      H   97    0.12727      0.00000     0.37207    0.00066     0.37273
      H   98    0.12404      0.00000     0.37544    0.00052     0.37596
      H   99    0.11539      0.00000     0.38409    0.00052     0.38461
      H  100    0.08277      0.00000     0.41650    0.00073     0.41723
      H  101    0.12055      0.00000     0.37858    0.00087     0.37945
 =======================================================================
   * Total *    3.00002     64.97309   136.41744    0.60946   201.99998

 Normal termination of Gaussian 16 at Mon Feb 20 17:12:09 2023.
