 Gaussian 16, Revision A.03,
 Gaussian 16:  ES64L-G16RevA.03 25-Dec-2016

 ----------------------------------------------------------------------
 # PBE1PBE/def2TZVP empiricaldispersion=GD3BJ scf=maxcycle=999 geom=che
 ck pop=nbo
 ----------------------------------------------------------------------

 ----------
 1hrc_III_D
 ----------
 Structure from the checkpoint file:  "1hrc_III_D.chk"
 Charge =  1 Multiplicity = 2

                         Standard orientation:
 ---------------------------------------------------------------------
 Center     Atomic      Atomic             Coordinates (Angstroms)
 Number     Number       Type             X           Y           Z
 ---------------------------------------------------------------------
      1          6           0        2.642834   -1.895760    4.972058
      2          6           0        1.853316   -1.355108    3.810748
      3          7           0        0.479928   -1.217990    3.904029
      4          6           0        2.203621   -0.951947    2.609410
      5          6           0        0.046710   -0.771455    2.687987
      6          7           0        1.075740   -0.582515    1.906615
      7          6           0       -0.857788    2.929897   -2.547235
      8          6           0        0.502389    2.157412   -2.526621
      9         16           0        0.324986    0.392981   -2.272802
     10          6           0        1.545230   -0.284456   -3.421113
     11         26           0        0.804155   -0.076535   -0.048002
     12          6           0       -2.674692    0.025225   -0.125072
     13          6           0        0.712643   -3.391592   -0.310979
     14          6           0        4.141500   -0.012262   -0.745658
     15          6           0        0.925975    3.118551    1.016369
     16          7           0       -0.714489   -1.390555   -0.140275
     17          6           0       -2.069221   -1.205432   -0.227295
     18          6           0       -2.673559   -2.498337   -0.541725
     19          6           0       -1.755435   -3.408609   -0.606944
     20          6           0       -0.483787   -2.752762   -0.364662
     21          6           0       -1.633357   -4.956017   -0.859426
     22          6           0       -4.219168   -2.657461   -0.723425
     23          6           0       -4.796593   -3.249718    0.628269
     24          6           0       -6.258763   -3.567668    0.615171
     25          8           0       -6.821763   -3.562758    1.763040
     26          8           0       -6.807076   -3.811403   -0.488724
     27          7           0        2.140777   -1.437147   -0.445604
     28          6           0        1.947435   -2.811263   -0.460850
     29          6           0        3.181204   -3.487251   -0.681681
     30          6           0        4.134179   -2.565393   -0.824466
     31          6           0        3.514456   -1.239692   -0.644053
     32          6           0        3.355679   -5.040939   -0.764406
     33          6           0        5.630678   -2.744187   -1.097873
     34          6           0        6.113936   -3.114881   -2.500953
     35          7           0        2.274771    1.324056    0.081992
     36          6           0        3.614784    1.168685   -0.247959
     37          6           0        4.317795    2.363111    0.090016
     38          6           0        3.428847    3.273978    0.571328
     39          6           0        2.139655    2.593163    0.614604
     40          6           0        5.842977    2.587277   -0.096677
     41          6           0        3.702188    4.667371    1.173216
     42          6           0        4.675366    5.609660    0.431142
     43          7           0       -0.559494    1.292989    0.391492
     44          6           0       -0.318610    2.570039    0.819674
     45          6           0       -1.598622    3.248593    0.967952
     46          6           0       -2.553423    2.413805    0.651602
     47          6           0       -1.956225    1.155040    0.252229
     48          6           0       -1.711328    4.717842    1.449936
     49          6           0       -4.093205    2.663530    0.657149
     50          6           0       -4.469333    3.322268   -0.678557
     51          6           0       -5.899871    3.724771   -0.870937
     52          8           0       -6.776375    3.471110   -0.043974
     53          8           0       -6.055118    4.300452   -1.972156
     54          1           0        2.358214   -2.910834    5.155133
     55          1           0        3.687323   -1.853862    4.743614
     56          1           0        2.444374   -1.307029    5.843213
     57          1           0       -0.085953   -1.408772    4.706140
     58          1           0       -0.974924   -0.603020    2.418184
     59          1           0        3.205633   -0.916071    2.235799
     60          1           0       -1.114263    3.227152   -1.551865
     61          1           0       -0.765664    3.797881   -3.166119
     62          1           0       -1.623777    2.293025   -2.937820
     63          1           0        1.000977    2.319497   -3.459380
     64          1           0        1.109176    2.555880   -1.740534
     65          1           0        1.773324   -1.292803   -3.145232
     66          1           0        1.148013   -0.267625   -4.414509
     67          1           0        2.436769    0.306000   -3.383428
     68          1           0        3.117097   -5.477578    0.182866
     69          1           0        2.700513   -5.434039   -1.513491
     70          1           0        4.368670   -5.273031   -1.019128
     71          1           0        0.691168   -4.446854   -0.135302
     72          1           0       -1.871789   -5.484079    0.040130
     73          1           0       -2.312582   -5.245733   -1.633776
     74          1           0       -0.632638   -5.191087   -1.156418
     75          1           0       -3.718998    0.115388   -0.340005
     76          1           0       -1.030678    4.880919    2.259269
     77          1           0       -1.470229    5.377509    0.642711
     78          1           0       -2.710863    4.909101    1.780467
     79          1           0        0.959037    4.053002    1.536569
     80          1           0        6.377479    1.746717    0.294049
     81          1           0        6.062529    2.696784   -1.138168
     82          1           0        6.139870    3.472795    0.425447
     83          1           0       -4.260689   -4.147251    0.856614
     84          1           0       -4.614912   -2.541032    1.409074
     85          1           0       -4.423353   -3.328673   -1.531313
     86          1           0       -4.662318   -1.703894   -0.921484
     87          1           0       -7.079462   -4.706893   -0.702037
     88          1           0       -5.432422    4.146315   -2.686362
     89          1           0       -3.865355    4.198140   -0.792395
     90          1           0       -4.213496    2.640504   -1.462549
     91          1           0       -4.610678    1.732675    0.760258
     92          1           0       -4.351769    3.313388    1.466921
     93          1           0        6.263186   -4.172837   -2.558857
     94          1           0        5.380045   -2.818283   -3.220907
     95          1           0        7.036637   -2.612839   -2.704611
     96          1           0        6.338494   -2.609674   -0.306796
     97          1           0        5.674705    5.240385    0.530430
     98          1           0        4.411594    5.650706   -0.605024
     99          1           0        4.613972    6.590664    0.853945
    100          1           0        3.229173    4.973860    2.082733
    101          1           0        5.090544    0.028471   -1.238159
 ---------------------------------------------------------------------

 SCF Done:  E(UPBE1PBE) =  -3880.34416910     A.U. after   69 cycles

 Alpha virt. eigenvalues --    0.95647   0.95966   0.95996   0.96372   0.96737
 Alpha virt. eigenvalues --    0.96906   0.97105   0.97438   0.97537   0.97607
 Alpha virt. eigenvalues --    0.98011   0.98624   0.98684   0.98946   0.99130

  Beta  occ. eigenvalues -- -256.42633 -89.11934 -30.19733 -26.02589 -26.02241
  Beta  occ. eigenvalues --  -26.01996 -19.32912 -19.32459 -19.24440 -19.24436
  Beta  occ. eigenvalues --  -14.53025 -14.49182 -14.48511 -14.47683 -14.47509
  Beta  occ. eigenvalues --  -14.47172 -10.42020 -10.41461 -10.41432 -10.37229
  Beta  occ. eigenvalues --  -10.36461 -10.36262 -10.36049 -10.35637 -10.35008
  Beta  occ. eigenvalues --  -10.35003 -10.34823 -10.34798 -10.34660 -10.34547
  Beta  occ. eigenvalues --  -10.34414 -10.33753 -10.32920 -10.32516 -10.32274
  Beta  occ. eigenvalues --  -10.32273 -10.32077 -10.31992 -10.31911 -10.31894
  Beta  occ. eigenvalues --  -10.31800 -10.31461 -10.31213 -10.31197 -10.31117
  Beta  occ. eigenvalues --  -10.31067 -10.31031 -10.30974 -10.30770 -10.30558
  Beta  occ. eigenvalues --  -10.30454 -10.30106 -10.30039 -10.30017 -10.29944
  Beta  occ. eigenvalues --  -10.29212 -10.29123  -8.09736  -6.03386  -6.03086
  Beta  occ. eigenvalues --   -6.02584  -3.54043  -2.30063  -2.29455  -2.29039
  Beta  occ. eigenvalues --   -1.23560  -1.22756  -1.14763  -1.10202  -1.08692
  Beta  occ. eigenvalues --   -1.07829  -1.07250  -1.06619  -1.05813  -0.99969
  Beta  occ. eigenvalues --   -0.94298  -0.93932  -0.92862  -0.92092  -0.91601
  Beta  occ. eigenvalues --   -0.91504  -0.90694  -0.90277  -0.89816  -0.88792
  Beta  occ. eigenvalues --   -0.87445  -0.86797  -0.86081  -0.85297  -0.84903
  Beta  occ. eigenvalues --   -0.83691  -0.82201  -0.81436  -0.81205  -0.80487
  Beta  occ. eigenvalues --   -0.79058  -0.77236  -0.77094  -0.76593  -0.76443
  Beta  occ. eigenvalues --   -0.75854  -0.75016  -0.73868  -0.73479  -0.73293
  Beta  occ. eigenvalues --   -0.70745  -0.70571  -0.69733  -0.69602  -0.68051
  Beta  occ. eigenvalues --   -0.66430  -0.65508  -0.64882  -0.64393  -0.63456
  Beta  occ. eigenvalues --   -0.62467  -0.61846  -0.61282  -0.60721  -0.59716
  Beta  occ. eigenvalues --   -0.59070  -0.58695  -0.58476  -0.58085  -0.57684
  Beta  occ. eigenvalues --   -0.57153  -0.56953  -0.56789  -0.56448  -0.56148
  Beta  occ. eigenvalues --   -0.55622  -0.55437  -0.55132  -0.55017  -0.54246
  Beta  occ. eigenvalues --   -0.54160  -0.53784  -0.53650  -0.53443  -0.53350
  Beta  occ. eigenvalues --   -0.53143  -0.53017  -0.52958  -0.52505  -0.52381
  Beta  occ. eigenvalues --   -0.52283  -0.52053  -0.51650  -0.51507  -0.51497
  Beta  occ. eigenvalues --   -0.51349  -0.50993  -0.50883  -0.50643  -0.50217
  Beta  occ. eigenvalues --   -0.49896  -0.49770  -0.49608  -0.49500  -0.49086
  Beta  occ. eigenvalues --   -0.48942  -0.48639  -0.48458  -0.48009  -0.47786
  Beta  occ. eigenvalues --   -0.47231  -0.47036  -0.46916  -0.46694  -0.46434
  Beta  occ. eigenvalues --   -0.46406  -0.46228  -0.45664  -0.45321  -0.45045
  Beta  occ. eigenvalues --   -0.44752  -0.44334  -0.43807  -0.43376  -0.43040
  Beta  occ. eigenvalues --   -0.42723  -0.42534  -0.42163  -0.41368  -0.41184
  Beta  occ. eigenvalues --   -0.40693  -0.39639  -0.39434  -0.39105  -0.38740
  Beta  occ. eigenvalues --   -0.38083  -0.37491  -0.35898  -0.35434  -0.35073
  Beta  occ. eigenvalues --   -0.34297  -0.33961  -0.33582  -0.32880  -0.31422
  Beta  occ. eigenvalues --   -0.30015  -0.29796  -0.29094  -0.28883
  Beta virt. eigenvalues --   -0.23734  -0.17172  -0.16852  -0.12481  -0.10740
  Beta virt. eigenvalues --   -0.08437  -0.08349  -0.07199  -0.06369  -0.06160
  Beta virt. eigenvalues --   -0.05731  -0.05277  -0.05158  -0.04980  -0.04505

 Mulliken charges and spin densities:
               1          2
     1  C   -0.374928   0.000006
     2  C    0.182220  -0.000124
     3  N   -0.224938   0.000043
     4  C   -0.232344   0.000142
     5  C    0.013705   0.000278
     6  N    0.047913   0.000104
     7  C   -0.355871  -0.000064
     8  C   -0.158362  -0.000125
     9  S    0.064652   0.000753
    10  C   -0.398228   0.000004
    11  Fe  -0.477274  -0.016383
    12  C   -0.450015  -0.002177
    13  C   -0.500070   0.003331
    14  C   -0.522870  -0.002292
    15  C   -0.430125  -0.005423
    16  N    0.002468  -0.001233
    17  C    0.223992   0.007912
    18  C    0.041024  -0.001973
    19  C   -0.086788   0.002303
    20  C    0.254718   0.002394
    21  C   -0.383213  -0.000121
    22  C   -0.306345   0.000079
    23  C   -0.200698  -0.000020
    24  C    0.287535  -0.000013
    25  O   -0.346316   0.000019
    26  O   -0.351161   0.000001
    27  N    0.059318   0.006193
    28  C    0.262076  -0.001885
    29  C   -0.042769   0.053725
    30  C    0.071122  -0.102082
    31  C    0.161647   0.030526
    32  C   -0.394630   0.001210
    33  C   -0.305217   1.047334
    34  C   -0.338500  -0.066480
    35  N    0.014425  -0.006309
    36  C    0.244247   0.015603
    37  C   -0.050126  -0.021376
    38  C    0.010530   0.008123
    39  C    0.189158   0.014178
    40  C   -0.343302   0.001052
    41  C   -0.131628  -0.014483
    42  C   -0.314613   0.000995
    43  N    0.094333  -0.002169
    44  C    0.195479   0.011367
    45  C   -0.105694  -0.000244
    46  C    0.123083   0.001898
    47  C    0.148093   0.008707
    48  C   -0.409741   0.000012
    49  C   -0.293445  -0.000298
    50  C   -0.334564   0.000180
    51  C    0.330888   0.000033
    52  O   -0.332505   0.000020
    53  O   -0.290661   0.000020
    54  H    0.150383  -0.000000
    55  H    0.143465  -0.000001
    56  H    0.145825  -0.000004
    57  H    0.247801  -0.000006
    58  H    0.180806  -0.000040
    59  H    0.140767   0.000037
    60  H    0.126913   0.000051
    61  H    0.136721  -0.000020
    62  H    0.119319   0.000049
    63  H    0.146494  -0.000031
    64  H    0.121499  -0.000042
    65  H    0.161350   0.000027
    66  H    0.172250   0.000045
    67  H    0.144830   0.000050
    68  H    0.144706   0.001280
    69  H    0.149541   0.000566
    70  H    0.149439  -0.000904
    71  H    0.165416  -0.000133
    72  H    0.150427   0.000096
    73  H    0.146336   0.000057
    74  H    0.135454   0.000027
    75  H    0.134509   0.000088
    76  H    0.138362   0.000003
    77  H    0.149742   0.000054
    78  H    0.149678  -0.000001
    79  H    0.104278   0.000273
    80  H    0.160048  -0.000197
    81  H    0.154548  -0.000733
    82  H    0.111058  -0.000023
    83  H    0.132771   0.000000
    84  H    0.136736   0.000005
    85  H    0.122350  -0.000016
    86  H    0.126018  -0.000005
    87  H    0.363477  -0.000000
    88  H    0.347360  -0.000001
    89  H    0.150685  -0.000003
    90  H    0.134856  -0.000005
    91  H    0.132472   0.000035
    92  H    0.143913   0.000047
    93  H    0.142854   0.048176
    94  H    0.131914   0.008403
    95  H    0.139055   0.015581
    96  H    0.150994  -0.048663
    97  H    0.151542  -0.000637
    98  H    0.167832  -0.000270
    99  H    0.162019  -0.000035
   100  H    0.185345   0.000748
   101  H    0.160154   0.002805
 Sum of Mulliken charges =   1.00000   1.00000

 Dipole moment (field-independent basis, Debye):
    X=             13.7985    Y=              1.9589    Z=             -1.3960  Tot=             14.0066
 Quadrupole moment (field-independent basis, Debye-Ang):
   XX=           -295.8974   YY=           -222.0613   ZZ=           -273.4617
   XY=             40.7835   XZ=             30.9672   YZ=              3.9394

 Summary of Natural Population Analysis:

                                       Natural Population
                Natural  -----------------------------------------------
    Atom  No    Charge         Core      Valence    Rydberg      Total
 -----------------------------------------------------------------------
      C    1   -0.31902      0.99970     2.31623    0.00309     3.31902
      C    2    0.06044      0.99946     1.93091    0.00920     2.93956
      N    3   -0.24734      0.99971     2.73812    0.00951     3.74734
      C    4   -0.04555      0.99933     2.03601    0.01022     3.04555
      C    5    0.10706      0.99966     1.88424    0.00904     2.89294
      N    6   -0.16745      0.99967     2.64011    0.02767     3.66745
      C    7   -0.30613      0.99971     2.30259    0.00382     3.30613
      C    8   -0.27266      0.99966     2.26356    0.00943     3.27266
      S    9    0.29294      4.99928     2.68571    0.02207     7.70706
      C   10   -0.37061      0.99964     2.36594    0.00503     3.37061
     Fe   11   -0.04689      8.99508     4.02681    0.02501    13.04689
      C   12   -0.12844      0.99945     2.12045    0.00853     3.12844
      C   13   -0.12434      0.99944     2.11589    0.00900     3.12434
      C   14   -0.12876      0.99947     2.12052    0.00877     3.12876
      C   15   -0.13070      0.99947     2.12266    0.00857     3.13070
      N   16   -0.18354      0.99968     2.66004    0.02381     3.68354
      C   17    0.09008      0.99953     1.89980    0.01058     2.90992
      C   18   -0.00733      0.99926     1.99807    0.01000     3.00733
      C   19   -0.01557      0.99924     2.00758    0.00876     3.01557
      C   20    0.10090      0.99950     1.88925    0.01035     2.89910
      C   21   -0.31586      0.99969     2.31276    0.00342     3.31586
      C   22   -0.20728      0.99968     2.20159    0.00601     3.20728
      C   23   -0.25109      0.99962     2.24299    0.00848     3.25109
      C   24    0.38007      0.99972     1.60314    0.01708     2.61993
      O   25   -0.27933      0.99990     3.26864    0.01079     4.27933
      O   26   -0.34066      0.99980     3.32646    0.01440     4.34066
      N   27   -0.17706      0.99968     2.65346    0.02392     3.67706
      C   28    0.08550      0.99949     1.90450    0.01051     2.91450
      C   29    0.02029      0.99931     1.97221    0.00819     2.97971
      C   30   -0.08143      0.99938     2.07184    0.01021     3.08143
      C   31    0.11277      0.99953     1.87767    0.01004     2.88723
      C   32   -0.31676      0.99969     2.31372    0.00334     3.31676
      C   33    0.44496      0.99973     1.55061    0.00471     2.55504
      C   34   -0.36085      0.99972     2.35779    0.00334     3.36085
      N   35   -0.16579      0.99970     2.64206    0.02403     3.66579
      C   36    0.07358      0.99951     1.91665    0.01026     2.92642
      C   37    0.00061      0.99938     1.99109    0.00891     2.99939
      C   38   -0.05419      0.99937     2.04503    0.00980     3.05419
      C   39    0.08978      0.99952     1.90013    0.01056     2.91022
      C   40   -0.31641      0.99969     2.31309    0.00363     3.31641
      C   41    0.04145      0.99974     1.95358    0.00523     2.95855
      C   42   -0.34313      0.99970     2.33748    0.00595     3.34313
      N   43   -0.19315      0.99967     2.66967    0.02381     3.69315
      C   44    0.09414      0.99952     1.89543    0.01091     2.90586
      C   45   -0.01572      0.99929     2.00710    0.00933     3.01572
      C   46   -0.01130      0.99928     2.00184    0.01019     3.01130
      C   47    0.09022      0.99952     1.90004    0.01022     2.90978
      C   48   -0.31849      0.99970     2.31514    0.00365     3.31849
      C   49   -0.20720      0.99968     2.19990    0.00762     3.20720
      C   50   -0.26064      0.99963     2.25227    0.00874     3.26064
      C   51    0.38203      0.99972     1.60093    0.01732     2.61797
      O   52   -0.28000      0.99989     3.26770    0.01242     4.28000
      O   53   -0.31644      0.99981     3.30152    0.01511     4.31644
      H   54    0.11397      0.00000     0.38537    0.00066     0.38603
      H   55    0.11753      0.00000     0.38200    0.00048     0.38247
      H   56    0.11300      0.00000     0.38633    0.00067     0.38700
      H   57    0.21206      0.00000     0.28710    0.00084     0.28794
      H   58    0.11356      0.00000     0.38542    0.00102     0.38644
      H   59    0.11321      0.00000     0.38605    0.00074     0.38679
      H   60    0.10917      0.00000     0.39000    0.00083     0.39083
      H   61    0.10858      0.00000     0.39079    0.00063     0.39142
      H   62    0.10724      0.00000     0.39186    0.00090     0.39276
      H   63    0.11329      0.00000     0.38598    0.00073     0.38671
      H   64    0.11319      0.00000     0.38552    0.00130     0.38681
      H   65    0.12192      0.00000     0.37745    0.00062     0.37808
      H   66    0.11419      0.00000     0.38510    0.00071     0.38581
      H   67    0.11142      0.00000     0.38773    0.00085     0.38858
      H   68    0.11293      0.00000     0.38639    0.00068     0.38707
      H   69    0.11241      0.00000     0.38693    0.00066     0.38759
      H   70    0.11535      0.00000     0.38401    0.00064     0.38465
      H   71    0.11455      0.00000     0.38429    0.00116     0.38545
      H   72    0.11252      0.00000     0.38676    0.00072     0.38748
      H   73    0.11368      0.00000     0.38561    0.00070     0.38632
      H   74    0.11024      0.00000     0.38904    0.00072     0.38976
      H   75    0.11602      0.00000     0.38272    0.00126     0.38398
      H   76    0.10983      0.00000     0.38952    0.00065     0.39017
      H   77    0.11149      0.00000     0.38777    0.00073     0.38851
      H   78    0.11447      0.00000     0.38483    0.00070     0.38553
      H   79    0.11075      0.00000     0.38788    0.00137     0.38925
      H   80    0.11712      0.00000     0.38223    0.00065     0.38288
      H   81    0.11603      0.00000     0.38329    0.00068     0.38397
      H   82    0.10715      0.00000     0.39213    0.00072     0.39285
      H   83    0.11736      0.00000     0.38202    0.00063     0.38264
      H   84    0.11885      0.00000     0.38049    0.00066     0.38115
      H   85    0.11289      0.00000     0.38627    0.00084     0.38711
      H   86    0.10683      0.00000     0.39248    0.00068     0.39317
      H   87    0.26229      0.00000     0.23656    0.00115     0.23771
      H   88    0.25108      0.00000     0.24796    0.00097     0.24892
      H   89    0.11157      0.00000     0.38768    0.00076     0.38843
      H   90    0.10821      0.00000     0.39096    0.00083     0.39179
      H   91    0.11355      0.00000     0.38568    0.00077     0.38645
      H   92    0.11754      0.00000     0.38171    0.00076     0.38246
      H   93    0.13652      0.00000     0.36292    0.00056     0.36348
      H   94    0.11315      0.00000     0.38623    0.00063     0.38685
      H   95    0.12102      0.00000     0.37846    0.00052     0.37898
      H   96    0.07935      0.00000     0.41982    0.00084     0.42065
      H   97    0.12357      0.00000     0.37564    0.00079     0.37643
      H   98    0.12443      0.00000     0.37505    0.00052     0.37557
      H   99    0.11984      0.00000     0.37973    0.00042     0.38016
      H  100    0.10663      0.00000     0.39259    0.00077     0.39337
      H  101    0.11875      0.00000     0.38031    0.00094     0.38125
 =======================================================================
   * Total *    1.00000     64.97320   138.41516    0.61164   204.00000

 Normal termination of Gaussian 16 at Thu Feb  9 15:26:55 2023.
