 Gaussian 16, Revision A.03,
 Gaussian 16:  ES64L-G16RevA.03 25-Dec-2016

 ----------------------------------------------------------------------
 # PBE1PBE/def2TZVP empiricaldispersion=GD3BJ int=(grid=ultrafine) geom
 =check pop=nbo
 ----------------------------------------------------------------------

 ----------
 1cmt_III_H
 ----------
 Structure from the checkpoint file:  "1cmt_III_H.chk"
 Charge =  1 Multiplicity = 6

                         Standard orientation:
 ---------------------------------------------------------------------
 Center     Atomic      Atomic             Coordinates (Angstroms)
 Number     Number       Type             X           Y           Z
 ---------------------------------------------------------------------
      1          6           0       -1.403921   -1.808380    4.954677
      2          6           0       -1.538406   -0.933030    3.707023
      3          7           0       -2.140717    0.238213    3.547021
      4          6           0       -0.978698   -1.214236    2.471389
      5          6           0       -1.955322    0.668200    2.314520
      6          7           0       -1.246482   -0.217511    1.656150
      7          6           0        2.384055    0.132499    0.255263
      8          6           0       -1.011414    3.457681   -0.239385
      9          6           0       -4.318413   -0.000245   -0.607826
     10          6           0       -0.816123   -3.280339   -0.665192
     11          6           0        1.769361    1.395727    0.195090
     12          6           0        2.430390    2.611118    0.193664
     13          6           0        1.448885    3.590432    0.070491
     14          6           0        0.258373    2.891972   -0.032960
     15          6           0        1.636834    5.105998    0.073343
     16          6           0        3.932014    2.808772    0.274719
     17          6           0        4.649452    2.805400   -1.082625
     18          6           0        6.145829    2.912281   -0.860928
     19          8           0        6.618720    3.885272   -0.293275
     20          8           0        6.894791    2.022645   -1.218749
     21          6           0       -2.269133    2.834061   -0.379750
     22          6           0       -3.483307    3.504292   -0.399003
     23          6           0       -4.456244    2.479119   -0.426188
     24          6           0       -3.755914    1.278367   -0.498850
     25          6           0       -3.626566    5.035306   -0.363993
     26          6           0       -5.849091    2.534316   -0.322827
     27          6           0       -6.536806    3.836675    0.127183
     28          6           0       -3.659476   -1.236218   -0.734181
     29          6           0       -4.298888   -2.434034   -1.014542
     30          6           0       -3.251467   -3.370006   -1.147327
     31          6           0       -2.081283   -2.689463   -0.823540
     32          6           0       -5.803898   -2.537903   -1.305708
     33          6           0       -3.243539   -4.730213   -1.495121
     34          6           0       -4.372583   -5.641063   -1.608170
     35          6           0        0.386594   -2.674491   -0.310798
     36          6           0        1.561755   -3.346358    0.007574
     37          6           0        2.492876   -2.359327    0.311845
     38          6           0        1.822870   -1.148872    0.125681
     39          6           0        1.791772   -4.856468    0.042469
     40          6           0        3.942816   -2.580067    0.758586
     41          6           0        4.888832   -2.468632   -0.450974
     42          6           0        6.391922   -2.604927   -0.194777
     43          8           0        7.179174   -2.359866   -1.100477
     44          8           0        6.819906   -2.981318    0.887415
     45          7           0        0.462929    1.587215    0.096200
     46          7           0       -2.442756    1.507079   -0.461354
     47          7           0       -2.325429   -1.382439   -0.662826
     48          7           0        0.536861   -1.348065   -0.177235
     49         26           0       -0.919930    0.118914   -0.308527
     50          8           0       -0.656781    0.333733   -2.291856
     51          1           0        6.726276   -2.421502    1.661650
     52          1           0        4.608620   -3.224949   -1.154085
     53          1           0        4.721689   -1.515784   -0.908188
     54          1           0        4.206885   -1.840114    1.484972
     55          1           0        4.035903   -3.553290    1.193410
     56          1           0        1.281055   -5.275686    0.884089
     57          1           0        1.415596   -5.295446   -0.857914
     58          1           0        2.839744   -5.055795    0.125669
     59          1           0        3.440246    0.149832    0.425735
     60          1           0        4.124307    3.744655    0.756432
     61          1           0        4.344019    2.026078    0.876833
     62          1           0        4.314543    3.637839   -1.665533
     63          1           0        4.429372    1.895312   -1.600510
     64          1           0        7.654648    1.789349   -0.680428
     65          1           0        1.883754    5.432915    1.061804
     66          1           0        2.428212    5.368518   -0.597257
     67          1           0        0.730222    5.578423   -0.242519
     68          1           0       -1.026681    4.525892   -0.299330
     69          1           0       -3.275306    5.404981    0.576675
     70          1           0       -3.048423    5.465803   -1.154767
     71          1           0       -4.655628    5.300204   -0.489533
     72          1           0       -6.437497    1.671683   -0.556372
     73          1           0       -6.663311    4.483009   -0.716114
     74          1           0       -7.493651    3.607801    0.547853
     75          1           0       -5.387508   -0.041667   -0.592995
     76          1           0       -6.275967   -1.604403   -1.080703
     77          1           0       -5.951890   -2.772471   -2.339137
     78          1           0       -6.231953   -3.309172   -0.700057
     79          1           0       -5.269556   -5.135005   -1.317923
     80          1           0       -4.462529   -5.973600   -2.621200
     81          1           0       -2.282537   -5.151726   -1.704173
     82          1           0       -0.771004   -4.334996   -0.840013
     83          1           0       -0.422503   -2.093735    2.222332
     84          1           0       -2.323506    1.590393    1.915896
     85          1           0       -2.657005    0.721574    4.253992
     86          1           0       -2.022791   -1.415737    5.734248
     87          1           0       -1.710997   -2.807171    4.724415
     88          1           0       -0.383925   -1.814395    5.277898
     89          1           0       -0.499559    1.179010   -1.864787
     90          1           0       -0.115341    0.268774   -3.081934
 ---------------------------------------------------------------------

 SCF Done:  E(UPBE1PBE) =  -3438.33035753     A.U. after   58 cycles

 Alpha virt. eigenvalues --    0.59985   0.60128   0.60868   0.60990   0.61289
 Alpha virt. eigenvalues --    0.61366   0.61647   0.61836   0.61998   0.62359
 Alpha virt. eigenvalues --    0.62603   0.63016   0.63272   0.63382   0.63573

  Beta  occ. eigenvalues -- -256.54014 -30.28223 -26.11626 -26.11495 -26.10567
  Beta  occ. eigenvalues --  -19.35596 -19.32999 -19.32770 -19.24765 -19.23682
  Beta  occ. eigenvalues --  -14.56240 -14.50207 -14.50164 -14.49608 -14.49361
  Beta  occ. eigenvalues --  -14.49079 -10.42173 -10.41418 -10.38818 -10.36887
  Beta  occ. eigenvalues --  -10.36530 -10.36402 -10.36166 -10.35924 -10.35883
  Beta  occ. eigenvalues --  -10.35815 -10.35778 -10.35624 -10.34126 -10.34101
  Beta  occ. eigenvalues --  -10.33760 -10.33748 -10.33649 -10.33603 -10.33541
  Beta  occ. eigenvalues --  -10.33517 -10.33286 -10.33266 -10.33214 -10.33165
  Beta  occ. eigenvalues --  -10.33107 -10.33000 -10.32793 -10.32764 -10.32575
  Beta  occ. eigenvalues --  -10.32554 -10.32045 -10.31517 -10.31454 -10.31118
  Beta  occ. eigenvalues --  -10.30996 -10.30868 -10.30834 -10.29689  -3.58780
  Beta  occ. eigenvalues --   -2.34784  -2.34512  -2.31133  -1.25640  -1.25570
  Beta  occ. eigenvalues --   -1.19975  -1.19531  -1.12760  -1.11963  -1.11351
  Beta  occ. eigenvalues --   -1.10684  -1.10528  -1.09850  -1.04181  -0.95487
  Beta  occ. eigenvalues --   -0.93922  -0.93824  -0.93504  -0.93227  -0.92682
  Beta  occ. eigenvalues --   -0.92657  -0.91389  -0.89620  -0.88661  -0.87425
  Beta  occ. eigenvalues --   -0.86623  -0.85370  -0.83885  -0.83100  -0.82765
  Beta  occ. eigenvalues --   -0.82011  -0.81538  -0.80783  -0.79410  -0.78551
  Beta  occ. eigenvalues --   -0.77669  -0.77470  -0.76912  -0.75444  -0.74146
  Beta  occ. eigenvalues --   -0.73960  -0.73130  -0.72617  -0.71984  -0.70414
  Beta  occ. eigenvalues --   -0.70329  -0.68129  -0.67921  -0.66692  -0.65615
  Beta  occ. eigenvalues --   -0.64636  -0.63888  -0.63778  -0.63498  -0.62121
  Beta  occ. eigenvalues --   -0.61530  -0.60253  -0.59985  -0.59784  -0.59647
  Beta  occ. eigenvalues --   -0.59437  -0.59339  -0.58358  -0.58004  -0.57469
  Beta  occ. eigenvalues --   -0.56995  -0.56653  -0.56115  -0.55712  -0.55634
  Beta  occ. eigenvalues --   -0.55304  -0.54867  -0.54783  -0.54491  -0.54256
  Beta  occ. eigenvalues --   -0.54085  -0.53581  -0.53465  -0.53134  -0.52920
  Beta  occ. eigenvalues --   -0.52689  -0.52551  -0.52188  -0.51998  -0.51847
  Beta  occ. eigenvalues --   -0.51755  -0.51552  -0.51249  -0.50945  -0.50835
  Beta  occ. eigenvalues --   -0.50573  -0.50025  -0.49682  -0.49219  -0.49153
  Beta  occ. eigenvalues --   -0.48825  -0.48691  -0.48483  -0.48183  -0.48032
  Beta  occ. eigenvalues --   -0.47953  -0.47914  -0.47319  -0.47167  -0.46933
  Beta  occ. eigenvalues --   -0.46245  -0.45950  -0.45629  -0.44538  -0.44179
  Beta  occ. eigenvalues --   -0.43824  -0.43634  -0.43449  -0.42647  -0.42471
  Beta  occ. eigenvalues --   -0.40572  -0.40443  -0.40259  -0.39417  -0.39213
  Beta  occ. eigenvalues --   -0.38337  -0.37669  -0.35930  -0.35644  -0.34628
  Beta  occ. eigenvalues --   -0.34343  -0.34257  -0.32312  -0.30590  -0.29892
  Beta virt. eigenvalues --   -0.21822  -0.20389  -0.19155  -0.17666  -0.17391
  Beta virt. eigenvalues --   -0.14957  -0.13779  -0.12797  -0.12459  -0.10139
  Beta virt. eigenvalues --   -0.08261  -0.08217  -0.07866  -0.06809  -0.06507

 Mulliken charges and spin densities:
               1          2
     1  C   -0.345913   0.001117
     2  C    0.097427   0.008196
     3  N   -0.189336   0.002687
     4  C   -0.168786  -0.001454
     5  C    0.027526   0.010468
     6  N    0.007569   0.067570
     7  C   -0.486648   0.017212
     8  C   -0.472983   0.143226
     9  C   -0.494445   0.001319
    10  C   -0.447423  -0.097473
    11  C    0.307655   0.003715
    12  C    0.061053  -0.018384
    13  C   -0.129506   0.032509
    14  C    0.337806  -0.051511
    15  C   -0.373660  -0.001398
    16  C   -0.420480   0.001352
    17  C   -0.123872  -0.001150
    18  C    0.226211  -0.000119
    19  O   -0.355216  -0.000117
    20  O   -0.300472   0.000004
    21  C    0.245730  -0.098473
    22  C   -0.141013   0.389723
    23  C   -0.013121  -0.192740
    24  C    0.246096   0.045348
    25  C   -0.335393  -0.019746
    26  C   -0.083430   0.646111
    27  C   -0.289610   0.978784
    28  C    0.365484   0.026182
    29  C   -0.144905  -0.033647
    30  C    0.041874   0.059361
    31  C    0.289167   0.054171
    32  C   -0.353208   0.002040
    33  C   -0.142093  -0.198524
    34  C   -0.287488   0.266185
    35  C    0.197200   0.066667
    36  C   -0.073041  -0.011750
    37  C    0.046598   0.041127
    38  C    0.244317   0.004816
    39  C   -0.383232   0.000226
    40  C   -0.363969  -0.004442
    41  C   -0.251908   0.002112
    42  C    0.261867   0.000315
    43  O   -0.313344   0.000431
    44  O   -0.296265   0.000004
    45  N   -0.084084  -0.033497
    46  N   -0.092949  -0.000901
    47  N   -0.063678  -0.107694
    48  N   -0.053980  -0.074501
    49  Fe  -0.119490   3.022570
    50  O   -0.464480   0.038652
    51  H    0.349087   0.000027
    52  H    0.146826  -0.000063
    53  H    0.143059  -0.000141
    54  H    0.128243   0.000821
    55  H    0.153690   0.000289
    56  H    0.157229  -0.000073
    57  H    0.148825  -0.000185
    58  H    0.142584  -0.000237
    59  H    0.119278  -0.001110
    60  H    0.160081  -0.000275
    61  H    0.127091  -0.000286
    62  H    0.134423   0.000078
    63  H    0.119592   0.000124
    64  H    0.363128  -0.000031
    65  H    0.160770   0.000997
    66  H    0.154473   0.000246
    67  H    0.133104   0.000167
    68  H    0.125720  -0.006664
    69  H    0.153685   0.016478
    70  H    0.147097   0.013030
    71  H    0.142828  -0.003248
    72  H    0.151119  -0.010938
    73  H    0.163772   0.003994
    74  H    0.156060  -0.011863
    75  H    0.085681   0.001676
    76  H    0.120502  -0.000014
    77  H    0.164616  -0.001351
    78  H    0.157152  -0.000930
    79  H    0.105336  -0.007597
    80  H    0.157759  -0.010926
    81  H    0.122822   0.010093
    82  H    0.117622   0.003766
    83  H    0.156210   0.001952
    84  H    0.188586   0.001135
    85  H    0.246911   0.001148
    86  H    0.136937   0.000269
    87  H    0.161073   0.000091
    88  H    0.158131   0.000144
    89  H    0.343081  -0.002824
    90  H    0.351656   0.015552
 Sum of Mulliken charges =   1.00000   5.00000

 Dipole moment (field-independent basis, Debye):
    X=             -9.2518    Y=              1.4161    Z=              5.5371  Tot=             10.8748
 Quadrupole moment (field-independent basis, Debye-Ang):
   XX=           -249.1308   YY=           -260.5582   ZZ=           -251.7214
   XY=            -25.1065   XZ=             13.3214   YZ=             -8.5742

 Summary of Natural Population Analysis:

                                       Natural Population
                Natural  -----------------------------------------------
    Atom  No    Charge         Core      Valence    Rydberg      Total
 -----------------------------------------------------------------------
      C    1   -0.31782      0.99969     2.31520    0.00293     3.31782
      C    2    0.06652      0.99958     1.92445    0.00945     2.93348
      N    3   -0.22422      0.99964     2.71419    0.01039     3.72422
      C    4   -0.03191      0.99950     2.02262    0.00978     3.03191
      C    5    0.09416      0.99965     1.89527    0.01092     2.90584
      N    6   -0.14633      0.99966     2.62550    0.02117     3.64633
      C    7   -0.08620      0.99956     2.07838    0.00827     3.08620
      C    8   -0.04750      0.99956     2.04041    0.00753     3.04750
      C    9   -0.09911      0.99955     2.09191    0.00765     3.09911
      C   10   -0.12768      0.99955     2.12040    0.00773     3.12768
      C   11    0.06779      0.99947     1.92182    0.01092     2.93221
      C   12   -0.01130      0.99944     2.00268    0.00919     3.01130
      C   13    0.01501      0.99942     1.97745    0.00812     2.98499
      C   14    0.04044      0.99947     1.94911    0.01097     2.95956
      C   15   -0.31816      0.99970     2.31482    0.00364     3.31816
      C   16   -0.20795      0.99966     2.20141    0.00688     3.20795
      C   17   -0.24508      0.99963     2.23731    0.00814     3.24508
      C   18    0.37990      0.99977     1.60044    0.01989     2.62010
      O   19   -0.30294      0.99988     3.29002    0.01304     4.30294
      O   20   -0.32164      0.99978     3.30690    0.01496     4.32164
      C   21    0.01737      0.99948     1.97266    0.01050     2.98263
      C   22    0.18303      0.99944     1.80939    0.00814     2.81697
      C   23   -0.12359      0.99947     2.11453    0.00959     3.12359
      C   24    0.11241      0.99950     1.87722    0.01087     2.88759
      C   25   -0.32583      0.99969     2.32283    0.00330     3.32583
      C   26    0.22092      0.99960     1.77468    0.00479     2.77908
      C   27    0.35055      0.99923     1.64575    0.00447     2.64945
      C   28    0.08483      0.99947     1.90487    0.01084     2.91517
      C   29    0.00447      0.99944     1.98768    0.00841     2.99553
      C   30   -0.03700      0.99945     2.02768    0.00988     3.03700
      C   31    0.11049      0.99950     1.87916    0.01085     2.88951
      C   32   -0.31572      0.99969     2.31208    0.00395     3.31572
      C   33   -0.14797      0.99965     2.14106    0.00726     3.14797
      C   34   -0.07958      0.99946     2.07042    0.00970     3.07958
      C   35    0.08970      0.99947     1.90020    0.01063     2.91030
      C   36   -0.00549      0.99943     1.99800    0.00806     3.00549
      C   37    0.01531      0.99943     1.97564    0.00961     2.98469
      C   38    0.07040      0.99948     1.91950    0.01061     2.92960
      C   39   -0.31921      0.99970     2.31583    0.00368     3.31921
      C   40   -0.21919      0.99967     2.21191    0.00760     3.21919
      C   41   -0.25608      0.99963     2.24797    0.00849     3.25608
      C   42    0.38070      0.99976     1.60070    0.01885     2.61930
      O   43   -0.27313      0.99988     3.26055    0.01269     4.27313
      O   44   -0.33108      0.99977     3.31513    0.01617     4.33108
      N   45   -0.21639      0.99963     2.69369    0.02306     3.71639
      N   46   -0.20165      0.99966     2.67858    0.02341     3.70165
      N   47   -0.22940      0.99966     2.70604    0.02370     3.72940
      N   48   -0.22410      0.99966     2.70085    0.02360     3.72410
     Fe   49    1.71369      8.99607     2.26610    0.02414    11.28631
      O   50   -0.36510      0.99991     3.35641    0.00878     4.36510
      H   51    0.25540      0.00000     0.24351    0.00109     0.24460
      H   52    0.12223      0.00000     0.37714    0.00063     0.37777
      H   53    0.11611      0.00000     0.38323    0.00067     0.38389
      H   54    0.10540      0.00000     0.39376    0.00084     0.39460
      H   55    0.11543      0.00000     0.38385    0.00072     0.38457
      H   56    0.11557      0.00000     0.38371    0.00072     0.38443
      H   57    0.11527      0.00000     0.38407    0.00066     0.38473
      H   58    0.11340      0.00000     0.38595    0.00065     0.38660
      H   59    0.10672      0.00000     0.39210    0.00117     0.39328
      H   60    0.12320      0.00000     0.37600    0.00080     0.37680
      H   61    0.10506      0.00000     0.39390    0.00104     0.39494
      H   62    0.11882      0.00000     0.38054    0.00064     0.38118
      H   63    0.10825      0.00000     0.39104    0.00071     0.39175
      H   64    0.26075      0.00000     0.23789    0.00136     0.23925
      H   65    0.11868      0.00000     0.38062    0.00070     0.38132
      H   66    0.11747      0.00000     0.38185    0.00069     0.38253
      H   67    0.11010      0.00000     0.38934    0.00057     0.38990
      H   68    0.11049      0.00000     0.38812    0.00139     0.38951
      H   69    0.12246      0.00000     0.37695    0.00059     0.37754
      H   70    0.11958      0.00000     0.37980    0.00062     0.38042
      H   71    0.11779      0.00000     0.38153    0.00068     0.38221
      H   72    0.10501      0.00000     0.39426    0.00074     0.39499
      H   73    0.08867      0.00000     0.41053    0.00080     0.41133
      H   74    0.08661      0.00000     0.41265    0.00074     0.41339
      H   75    0.10594      0.00000     0.39254    0.00152     0.39406
      H   76    0.10721      0.00000     0.39221    0.00058     0.39279
      H   77    0.11986      0.00000     0.37931    0.00082     0.38014
      H   78    0.11563      0.00000     0.38363    0.00074     0.38437
      H   79    0.08229      0.00000     0.41688    0.00083     0.41771
      H   80    0.10425      0.00000     0.39493    0.00082     0.39575
      H   81    0.10061      0.00000     0.39846    0.00093     0.39939
      H   82    0.11224      0.00000     0.38642    0.00134     0.38776
      H   83    0.11458      0.00000     0.38469    0.00073     0.38542
      H   84    0.11538      0.00000     0.38380    0.00082     0.38462
      H   85    0.21432      0.00000     0.28495    0.00074     0.28568
      H   86    0.11242      0.00000     0.38702    0.00056     0.38758
      H   87    0.12011      0.00000     0.37938    0.00052     0.37989
      H   88    0.11851      0.00000     0.38093    0.00056     0.38149
      H   89    0.25352      0.00000     0.24473    0.00175     0.24648
      H   90    0.26535      0.00000     0.23340    0.00125     0.23465
 =======================================================================
   * Total *    3.00000     57.97604   126.44307    0.58089   185.00000

 Normal termination of Gaussian 16 at Fri Sep 30 11:38:13 2022.
