 Gaussian 16, Revision A.03,
 Gaussian 16:  ES64L-G16RevA.03 25-Dec-2016

 ----------------------------------------------------------------------
 # PBE1PBE/def2TZVP empiricaldispersion=GD3BJ scf=maxcycle=999 geom=che
 ck pop=nbo
 ----------------------------------------------------------------------

 ---------
 1cmt_II_Q
 ---------
 Structure from the checkpoint file:  "1cmt_II_Q.chk"
 Charge =  0 Multiplicity = 5

                         Standard orientation:
 ---------------------------------------------------------------------
 Center     Atomic      Atomic             Coordinates (Angstroms)
 Number     Number       Type             X           Y           Z
 ---------------------------------------------------------------------
      1          6           0       -1.403921   -1.808380    4.954677
      2          6           0       -1.538406   -0.933030    3.707023
      3          7           0       -2.140717    0.238213    3.547021
      4          6           0       -0.978698   -1.214236    2.471389
      5          6           0       -1.955322    0.668200    2.314520
      6          7           0       -1.246482   -0.217511    1.656150
      7          6           0        2.384055    0.132499    0.255263
      8          6           0       -1.011414    3.457681   -0.239385
      9          6           0       -4.318413   -0.000245   -0.607826
     10          6           0       -0.816123   -3.280339   -0.665192
     11          6           0        1.769361    1.395727    0.195090
     12          6           0        2.430390    2.611118    0.193664
     13          6           0        1.448885    3.590432    0.070491
     14          6           0        0.258373    2.891972   -0.032960
     15          6           0        1.636834    5.105998    0.073343
     16          6           0        3.932014    2.808772    0.274719
     17          6           0        4.649452    2.805400   -1.082625
     18          6           0        6.145829    2.912281   -0.860928
     19          8           0        6.618720    3.885272   -0.293275
     20          8           0        6.894791    2.022645   -1.218749
     21          6           0       -2.269133    2.834061   -0.379750
     22          6           0       -3.483307    3.504292   -0.399003
     23          6           0       -4.456244    2.479119   -0.426188
     24          6           0       -3.755914    1.278367   -0.498850
     25          6           0       -3.626566    5.035306   -0.363993
     26          6           0       -5.849091    2.534316   -0.322827
     27          6           0       -6.536806    3.836675    0.127183
     28          6           0       -3.659476   -1.236218   -0.734181
     29          6           0       -4.298888   -2.434034   -1.014542
     30          6           0       -3.251467   -3.370006   -1.147327
     31          6           0       -2.081283   -2.689463   -0.823540
     32          6           0       -5.803898   -2.537903   -1.305708
     33          6           0       -3.243539   -4.730213   -1.495121
     34          6           0       -4.372583   -5.641063   -1.608170
     35          6           0        0.386594   -2.674491   -0.310798
     36          6           0        1.561755   -3.346358    0.007574
     37          6           0        2.492876   -2.359327    0.311845
     38          6           0        1.822870   -1.148872    0.125681
     39          6           0        1.791772   -4.856468    0.042469
     40          6           0        3.942816   -2.580067    0.758586
     41          6           0        4.888832   -2.468632   -0.450974
     42          6           0        6.391922   -2.604927   -0.194777
     43          8           0        7.179174   -2.359866   -1.100477
     44          8           0        6.819906   -2.981318    0.887415
     45          7           0        0.462929    1.587215    0.096200
     46          7           0       -2.442756    1.507079   -0.461354
     47          7           0       -2.325429   -1.382439   -0.662826
     48          7           0        0.536861   -1.348065   -0.177235
     49         26           0       -0.919930    0.118914   -0.308527
     50          8           0       -0.656781    0.333733   -2.291856
     51          1           0        6.726276   -2.421502    1.661650
     52          1           0        4.608620   -3.224949   -1.154085
     53          1           0        4.721689   -1.515784   -0.908188
     54          1           0        4.206885   -1.840114    1.484972
     55          1           0        4.035903   -3.553290    1.193410
     56          1           0        1.281055   -5.275686    0.884089
     57          1           0        1.415596   -5.295446   -0.857914
     58          1           0        2.839744   -5.055795    0.125669
     59          1           0        3.440246    0.149832    0.425735
     60          1           0        4.124307    3.744655    0.756432
     61          1           0        4.344019    2.026078    0.876833
     62          1           0        4.314543    3.637839   -1.665533
     63          1           0        4.429372    1.895312   -1.600510
     64          1           0        7.654648    1.789349   -0.680428
     65          1           0        1.883754    5.432915    1.061804
     66          1           0        2.428212    5.368518   -0.597257
     67          1           0        0.730222    5.578423   -0.242519
     68          1           0       -1.026681    4.525892   -0.299330
     69          1           0       -3.275306    5.404981    0.576675
     70          1           0       -3.048423    5.465803   -1.154767
     71          1           0       -4.655628    5.300204   -0.489533
     72          1           0       -6.437497    1.671683   -0.556372
     73          1           0       -6.663311    4.483009   -0.716114
     74          1           0       -7.493651    3.607801    0.547853
     75          1           0       -5.387508   -0.041667   -0.592995
     76          1           0       -6.275967   -1.604403   -1.080703
     77          1           0       -5.951890   -2.772471   -2.339137
     78          1           0       -6.231953   -3.309172   -0.700057
     79          1           0       -5.269556   -5.135005   -1.317923
     80          1           0       -4.462529   -5.973600   -2.621200
     81          1           0       -2.282537   -5.151726   -1.704173
     82          1           0       -0.771004   -4.334996   -0.840013
     83          1           0       -0.422503   -2.093735    2.222332
     84          1           0       -2.323506    1.590393    1.915896
     85          1           0       -2.657005    0.721574    4.253992
     86          1           0       -2.022791   -1.415737    5.734248
     87          1           0       -1.710997   -2.807171    4.724415
     88          1           0       -0.383925   -1.814395    5.277898
     89          1           0       -0.499559    1.179010   -1.864787
     90          1           0       -0.115341    0.268774   -3.081934
 ---------------------------------------------------------------------

 SCF Done:  E(UPBE1PBE) =  -3438.54889979     A.U. after   78 cycles

 Alpha virt. eigenvalues --    0.71238   0.71379   0.71714   0.72008   0.72295
 Alpha virt. eigenvalues --    0.72377   0.72953   0.73200   0.73457   0.73681
 Alpha virt. eigenvalues --    0.73758   0.73960   0.74262   0.74625   0.74958

  Beta  occ. eigenvalues -- -256.32627 -30.05144 -25.88880 -25.88461 -25.87746
  Beta  occ. eigenvalues --  -19.26236 -19.26019 -19.22854 -19.17878 -19.16758
  Beta  occ. eigenvalues --  -14.45968 -14.38370 -14.36620 -14.35929 -14.35521
  Beta  occ. eigenvalues --  -14.35435 -10.35119 -10.34332 -10.27861 -10.26663
  Beta  occ. eigenvalues --  -10.25285 -10.24936 -10.24731 -10.24729 -10.24443
  Beta  occ. eigenvalues --  -10.24384 -10.24336 -10.24283 -10.24206 -10.23999
  Beta  occ. eigenvalues --  -10.23973 -10.23543 -10.23531 -10.23502 -10.23455
  Beta  occ. eigenvalues --  -10.23262 -10.23219 -10.23146 -10.22870 -10.22862
  Beta  occ. eigenvalues --  -10.22717 -10.22694 -10.22597 -10.22595 -10.22557
  Beta  occ. eigenvalues --  -10.22348 -10.22314 -10.22130 -10.21931 -10.21806
  Beta  occ. eigenvalues --  -10.21657 -10.21647 -10.21597 -10.19873  -3.36370
  Beta  occ. eigenvalues --   -2.11455  -2.11183  -2.10915  -1.18841  -1.18767
  Beta  occ. eigenvalues --   -1.08912  -1.07332  -1.03844  -1.02961  -1.00796
  Beta  occ. eigenvalues --   -1.00044  -0.99405  -0.98564  -0.93294  -0.84758
  Beta  occ. eigenvalues --   -0.84187  -0.83933  -0.83372  -0.82442  -0.82005
  Beta  occ. eigenvalues --   -0.81814  -0.81552  -0.79962  -0.79255  -0.77581
  Beta  occ. eigenvalues --   -0.75765  -0.75679  -0.74237  -0.73463  -0.73359
  Beta  occ. eigenvalues --   -0.72069  -0.71507  -0.70919  -0.70556  -0.70426
  Beta  occ. eigenvalues --   -0.67843  -0.67193  -0.66559  -0.66401  -0.65473
  Beta  occ. eigenvalues --   -0.63563  -0.63194  -0.61916  -0.60028  -0.59604
  Beta  occ. eigenvalues --   -0.59055  -0.57735  -0.57419  -0.56112  -0.55154
  Beta  occ. eigenvalues --   -0.54743  -0.54066  -0.53535  -0.53067  -0.52534
  Beta  occ. eigenvalues --   -0.52342  -0.51769  -0.51130  -0.50182  -0.49767
  Beta  occ. eigenvalues --   -0.49559  -0.49439  -0.49296  -0.49086  -0.47894
  Beta  occ. eigenvalues --   -0.47284  -0.46497  -0.46324  -0.46060  -0.45991
  Beta  occ. eigenvalues --   -0.45278  -0.44984  -0.44706  -0.44514  -0.44367
  Beta  occ. eigenvalues --   -0.44209  -0.44157  -0.43766  -0.43729  -0.43511
  Beta  occ. eigenvalues --   -0.43204  -0.42920  -0.42548  -0.42275  -0.42012
  Beta  occ. eigenvalues --   -0.41930  -0.41454  -0.41404  -0.40998  -0.40785
  Beta  occ. eigenvalues --   -0.40453  -0.40164  -0.39749  -0.39445  -0.39395
  Beta  occ. eigenvalues --   -0.39132  -0.39022  -0.38732  -0.38181  -0.37996
  Beta  occ. eigenvalues --   -0.37932  -0.37149  -0.36976  -0.36767  -0.36597
  Beta  occ. eigenvalues --   -0.36168  -0.35815  -0.35315  -0.34945  -0.33739
  Beta  occ. eigenvalues --   -0.33616  -0.33563  -0.33453  -0.32440  -0.31582
  Beta  occ. eigenvalues --   -0.31017  -0.30735  -0.30316  -0.29520  -0.28527
  Beta  occ. eigenvalues --   -0.28085  -0.27598  -0.27184  -0.24883  -0.24189
  Beta  occ. eigenvalues --   -0.24120  -0.22207  -0.21404  -0.19582  -0.18883
  Beta  occ. eigenvalues --   -0.16224
  Beta virt. eigenvalues --   -0.08932  -0.08752  -0.06364  -0.04195  -0.01359
  Beta virt. eigenvalues --   -0.00963  -0.00226   0.00187   0.00528   0.00685
  Beta virt. eigenvalues --    0.01353   0.02398   0.02487   0.03351   0.04209

 Mulliken charges and spin densities:
               1          2
     1  C   -0.358053   0.000914
     2  C    0.105648   0.005177
     3  N   -0.202530   0.000801
     4  C   -0.172510   0.002196
     5  C    0.025441   0.006244
     6  N   -0.007994   0.022520
     7  C   -0.506191  -0.012460
     8  C   -0.497092  -0.144879
     9  C   -0.500387   0.026133
    10  C   -0.482260   0.004174
    11  C    0.310016  -0.018102
    12  C    0.057634   0.048660
    13  C   -0.131188  -0.041292
    14  C    0.338505   0.059478
    15  C   -0.390854   0.003108
    16  C   -0.428883  -0.003141
    17  C   -0.115063   0.002063
    18  C    0.222541   0.000306
    19  O   -0.368682   0.000103
    20  O   -0.301233  -0.000024
    21  C    0.246877   0.102295
    22  C   -0.124850  -0.300136
    23  C   -0.004157   0.224496
    24  C    0.249719  -0.059644
    25  C   -0.349975   0.022384
    26  C   -0.104954  -0.616142
    27  C   -0.357609   0.823074
    28  C    0.359737  -0.030251
    29  C   -0.136615   0.066406
    30  C    0.025222  -0.067118
    31  C    0.292183  -0.000502
    32  C   -0.359562  -0.003498
    33  C   -0.130291   0.153567
    34  C   -0.349157  -0.206658
    35  C    0.200664  -0.007488
    36  C   -0.074042  -0.017955
    37  C    0.040091   0.013185
    38  C    0.250979  -0.013093
    39  C   -0.396998   0.002297
    40  C   -0.373777   0.000267
    41  C   -0.249342   0.000327
    42  C    0.260377   0.000097
    43  O   -0.327732   0.000005
    44  O   -0.303259   0.000007
    45  N   -0.155270  -0.001814
    46  N   -0.151951  -0.037226
    47  N   -0.133250   0.055460
    48  N   -0.115334   0.035615
    49  Fe   0.012085   3.879767
    50  O   -0.483428   0.018849
    51  H    0.347658   0.000009
    52  H    0.141056  -0.000002
    53  H    0.145593   0.000088
    54  H    0.119969   0.000044
    55  H    0.140416   0.000272
    56  H    0.144186  -0.001071
    57  H    0.139435  -0.000729
    58  H    0.125966   0.000188
    59  H    0.095980  -0.000289
    60  H    0.145982   0.000575
    61  H    0.120308   0.000694
    62  H    0.125181  -0.000076
    63  H    0.120966  -0.000217
    64  H    0.354481   0.000092
    65  H    0.143707  -0.001453
    66  H    0.138165  -0.000448
    67  H    0.126058  -0.000285
    68  H    0.104792   0.006255
    69  H    0.136187  -0.013374
    70  H    0.137003  -0.004956
    71  H    0.136015  -0.003789
    72  H    0.135114   0.045351
    73  H    0.152808  -0.026864
    74  H    0.123123  -0.027723
    75  H    0.071764  -0.003680
    76  H    0.113767   0.000045
    77  H    0.148141   0.002421
    78  H    0.143562   0.001548
    79  H    0.094014   0.006547
    80  H    0.132940   0.007144
    81  H    0.108705  -0.007552
    82  H    0.098532  -0.000801
    83  H    0.141990   0.001706
    84  H    0.177555   0.002390
    85  H    0.229026   0.001300
    86  H    0.121825   0.000103
    87  H    0.153933   0.000081
    88  H    0.146793   0.000085
    89  H    0.340744  -0.001370
    90  H    0.323316   0.019191
 Sum of Mulliken charges =  -0.00000   4.00000

 Dipole moment (field-independent basis, Debye):
    X=             -2.9274    Y=              1.4284    Z=              5.8577  Tot=              6.7024
 Quadrupole moment (field-independent basis, Debye-Ang):
   XX=           -329.1844   YY=           -323.0228   ZZ=           -269.6227
   XY=            -22.2069   XZ=             10.4160   YZ=            -12.0464

 Summary of Natural Population Analysis:

                                       Natural Population
                Natural  -----------------------------------------------
    Atom  No    Charge         Core      Valence    Rydberg      Total
 -----------------------------------------------------------------------
      C    1   -0.31659      0.99970     2.31396    0.00294     3.31659
      C    2    0.05173      0.99958     1.93872    0.00997     2.94827
      N    3   -0.22995      0.99964     2.71977    0.01055     3.72995
      C    4   -0.02947      0.99951     2.01945    0.01051     3.02947
      C    5    0.08979      0.99966     1.89904    0.01151     2.91021
      N    6   -0.17044      0.99969     2.64771    0.02304     3.67044
      C    7   -0.09820      0.99956     2.09052    0.00813     3.09820
      C    8   -0.17129      0.99956     2.16347    0.00826     3.17129
      C    9   -0.07833      0.99955     2.07127    0.00751     3.07833
      C   10   -0.09508      0.99954     2.08767    0.00788     3.09508
      C   11    0.05233      0.99947     1.93763    0.01056     2.94767
      C   12    0.00804      0.99943     1.98327    0.00927     2.99196
      C   13   -0.03187      0.99942     2.02383    0.00862     3.03187
      C   14    0.08631      0.99948     1.90326    0.01096     2.91369
      C   15   -0.31556      0.99970     2.31211    0.00375     3.31556
      C   16   -0.20693      0.99966     2.20019    0.00708     3.20693
      C   17   -0.24486      0.99963     2.23702    0.00822     3.24486
      C   18    0.38194      0.99977     1.59831    0.01998     2.61806
      O   19   -0.31003      0.99988     3.29713    0.01302     4.31003
      O   20   -0.32278      0.99978     3.30807    0.01493     4.32278
      C   21    0.09040      0.99949     1.89903    0.01109     2.90960
      C   22   -0.12799      0.99945     2.11961    0.00894     3.12799
      C   23    0.01052      0.99945     1.97973    0.01030     2.98948
      C   24    0.04938      0.99950     1.93982    0.01129     2.95062
      C   25   -0.31434      0.99969     2.31052    0.00412     3.31434
      C   26   -0.32683      0.99962     2.31951    0.00769     3.32683
      C   27    0.19337      0.99934     1.80089    0.00640     2.80663
      C   28    0.04270      0.99947     1.94737    0.01046     2.95730
      C   29    0.04999      0.99943     1.94189    0.00869     2.95001
      C   30   -0.10200      0.99945     2.09225    0.01030     3.10200
      C   31    0.08844      0.99951     1.90107    0.01098     2.91156
      C   32   -0.31792      0.99970     2.31435    0.00387     3.31792
      C   33    0.00650      0.99965     1.98684    0.00701     2.99350
      C   34   -0.34168      0.99961     2.33374    0.00833     3.34168
      C   35    0.05969      0.99947     1.92966    0.01118     2.94031
      C   36   -0.02121      0.99942     2.01324    0.00855     3.02121
      C   37   -0.01163      0.99942     2.00246    0.00975     3.01163
      C   38    0.04893      0.99948     1.94103    0.01055     2.95107
      C   39   -0.31754      0.99970     2.31415    0.00369     3.31754
      C   40   -0.21617      0.99968     2.20897    0.00752     3.21617
      C   41   -0.25781      0.99963     2.24981    0.00837     3.25781
      C   42    0.38248      0.99976     1.59873    0.01903     2.61752
      O   43   -0.28156      0.99988     3.26904    0.01264     4.28156
      O   44   -0.33409      0.99977     3.31829    0.01604     4.33409
      N   45   -0.22340      0.99967     2.70253    0.02120     3.72340
      N   46   -0.23118      0.99969     2.70970    0.02179     3.73118
      N   47   -0.17051      0.99969     2.64968    0.02114     3.67051
      N   48   -0.18724      0.99970     2.66510    0.02245     3.68724
     Fe   49    2.13082      8.99580     1.84557    0.02782    10.86918
      O   50   -0.39468      0.99992     3.38317    0.01160     4.39468
      H   51    0.25506      0.00000     0.24382    0.00111     0.24494
      H   52    0.12137      0.00000     0.37798    0.00065     0.37863
      H   53    0.11815      0.00000     0.38116    0.00070     0.38185
      H   54    0.10103      0.00000     0.39772    0.00125     0.39897
      H   55    0.11071      0.00000     0.38854    0.00076     0.38929
      H   56    0.11050      0.00000     0.38868    0.00082     0.38950
      H   57    0.11125      0.00000     0.38802    0.00074     0.38875
      H   58    0.10776      0.00000     0.39156    0.00068     0.39224
      H   59    0.09886      0.00000     0.39998    0.00116     0.40114
      H   60    0.11864      0.00000     0.38055    0.00081     0.38136
      H   61    0.10326      0.00000     0.39568    0.00106     0.39674
      H   62    0.11714      0.00000     0.38219    0.00067     0.38286
      H   63    0.10934      0.00000     0.38993    0.00073     0.39066
      H   64    0.25794      0.00000     0.24056    0.00150     0.24206
      H   65    0.11111      0.00000     0.38808    0.00081     0.38889
      H   66    0.11077      0.00000     0.38847    0.00076     0.38923
      H   67    0.10797      0.00000     0.39143    0.00060     0.39203
      H   68    0.10659      0.00000     0.39196    0.00145     0.39341
      H   69    0.10534      0.00000     0.39357    0.00109     0.39466
      H   70    0.10823      0.00000     0.39092    0.00084     0.39177
      H   71    0.11659      0.00000     0.38248    0.00093     0.38341
      H   72    0.11579      0.00000     0.38337    0.00084     0.38421
      H   73    0.08031      0.00000     0.41832    0.00137     0.41969
      H   74    0.07216      0.00000     0.42700    0.00084     0.42784
      H   75    0.09983      0.00000     0.39845    0.00172     0.40017
      H   76    0.10550      0.00000     0.39388    0.00061     0.39450
      H   77    0.11633      0.00000     0.38282    0.00085     0.38367
      H   78    0.11225      0.00000     0.38696    0.00079     0.38775
      H   79    0.08448      0.00000     0.41445    0.00107     0.41552
      H   80    0.10542      0.00000     0.39344    0.00113     0.39458
      H   81    0.09121      0.00000     0.40788    0.00091     0.40879
      H   82    0.10419      0.00000     0.39446    0.00135     0.39581
      H   83    0.11174      0.00000     0.38751    0.00075     0.38826
      H   84    0.11362      0.00000     0.38549    0.00089     0.38638
      H   85    0.20812      0.00000     0.29109    0.00079     0.29188
      H   86    0.10711      0.00000     0.39228    0.00060     0.39289
      H   87    0.11662      0.00000     0.38283    0.00055     0.38338
      H   88    0.11394      0.00000     0.38545    0.00061     0.38606
      H   89    0.25397      0.00000     0.24341    0.00262     0.24603
      H   90    0.25564      0.00000     0.24285    0.00151     0.24436
 =======================================================================
   * Total *    2.00000     57.97626   127.42532    0.59842   186.00000

 Normal termination of Gaussian 16 at Fri Sep  9 16:44:49 2022.
