 Gaussian 16, Revision A.03,
 Gaussian 16:  ES64L-G16RevA.03 25-Dec-2016

 ----------------------------------------------------------------------
 # PBE1PBE/def2TZVP empiricaldispersion=GD3BJ scf=maxcycle=999 geom=che
 ck pop=nbo
 ----------------------------------------------------------------------

 ----------
 1ycc_III_H
 ----------
 Structure from the checkpoint file:  "1ycc_III_H.chk"
 Charge =  1 Multiplicity = 6

                         Standard orientation:
 ---------------------------------------------------------------------
 Center     Atomic      Atomic             Coordinates (Angstroms)
 Number     Number       Type             X           Y           Z
 ---------------------------------------------------------------------
      1          6           0        2.468053   -1.856172    4.947966
      2          6           0        1.666425   -1.350076    3.778661
      3          7           0        0.317816   -1.358164    3.755049
      4          6           0        2.081531   -0.875037    2.550414
      5          6           0       -0.074217   -0.890456    2.663821
      6          7           0        0.969297   -0.598287    1.830413
      7          6           0       -0.714350    2.898424   -2.707884
      8          6           0        0.599624    2.080160   -2.778552
      9         16           0        0.437218    0.436133   -2.342520
     10          6           0        1.839321   -0.243717   -3.234893
     11         26           0        0.816983   -0.072263   -0.078276
     12          6           0       -2.580619   -0.055763   -0.075910
     13          6           0        0.757676   -3.436856   -0.536266
     14          6           0        4.125144    0.014980   -0.594566
     15          6           0        0.853608    3.073536    0.976226
     16          7           0       -0.619487   -1.408880   -0.253213
     17          6           0       -1.955818   -1.284882   -0.229828
     18          6           0       -2.645860   -2.509009   -0.702994
     19          6           0       -1.688306   -3.432487   -0.795038
     20          6           0       -0.441805   -2.844899   -0.572476
     21          6           0       -1.900671   -4.930640   -1.236441
     22          6           0       -4.143698   -2.599479   -0.767465
     23          6           0       -4.687493   -3.074947    0.618723
     24          6           0       -6.156339   -3.458294    0.715814
     25          8           0       -6.507938   -3.796065    1.851948
     26          8           0       -6.895881   -3.401976   -0.290146
     27          7           0        2.206568   -1.456222   -0.484016
     28          6           0        2.001049   -2.829273   -0.420940
     29          6           0        3.306174   -3.432146   -0.675712
     30          6           0        4.269967   -2.482026   -0.764130
     31          6           0        3.531936   -1.261085   -0.580928
     32          6           0        3.500322   -4.992310   -0.664877
     33          6           0        5.764094   -2.577358   -0.928013
     34          6           0        6.231394   -2.702312   -2.387389
     35          7           0        2.207380    1.328924    0.163900
     36          6           0        3.543131    1.256615   -0.090955
     37          6           0        4.334408    2.371910    0.252100
     38          6           0        3.401044    3.259365    0.654339
     39          6           0        2.099018    2.596381    0.686443
     40          6           0        5.811506    2.572728    0.104562
     41          6           0        3.543194    4.642936    1.361482
     42          6           0        4.449739    5.606273    0.562394
     43          7           0       -0.593690    1.274532    0.380739
     44          6           0       -0.386635    2.578135    0.816021
     45          6           0       -1.608700    3.207002    1.016576
     46          6           0       -2.581773    2.341366    0.689408
     47          6           0       -1.933053    1.124877    0.206958
     48          6           0       -1.821529    4.725724    1.460971
     49          6           0       -4.094221    2.672155    0.631007
     50          6           0       -4.591709    2.890939   -0.778631
     51          6           0       -5.926610    3.587227   -0.967910
     52          8           0       -6.737528    3.542358   -0.003672
     53          8           0       -6.142557    3.989235   -2.133287
     54          1           0        1.638988   -1.263201   -3.490666
     55          1           0        2.002328    0.322647   -4.127955
     56          1           0        2.712130   -0.195707   -2.617804
     57          1           0       -1.167102    2.763892   -1.747771
     58          1           0       -0.497249    3.935402   -2.857693
     59          1           0       -1.386035    2.561011   -3.469390
     60          1           0        0.974556    2.128807   -3.779532
     61          1           0        1.315696    2.533772   -2.125577
     62          1           0        4.598017    6.504839    1.124080
     63          1           0        5.395010    5.138740    0.381354
     64          1           0        3.983845    5.842214   -0.371509
     65          1           0        3.070185    4.894379    2.287731
     66          1           0        6.329698    1.750415    0.551976
     67          1           0        6.061759    2.629332   -0.934221
     68          1           0        6.098151    3.481879    0.590544
     69          1           0        5.105330    0.082893   -1.018267
     70          1           0        5.409389   -3.008503   -3.000131
     71          1           0        6.596432   -1.755683   -2.727302
     72          1           0        7.013583   -3.429713   -2.450395
     73          1           0        6.441859   -2.559651   -0.100232
     74          1           0        2.557399   -5.467879   -0.492743
     75          1           0        3.892759   -5.309454   -1.608441
     76          1           0        4.182938   -5.261382    0.113927
     77          1           0        0.758953   -4.504696   -0.604211
     78          1           0       -2.902786   -5.230290   -1.010887
     79          1           0       -1.730031   -5.019969   -2.288963
     80          1           0       -1.213359   -5.558679   -0.709119
     81          1           0       -4.427717   -3.301525   -1.523351
     82          1           0       -4.550689   -1.637841   -1.000942
     83          1           0       -4.110003   -3.923863    0.919968
     84          1           0       -4.509784   -2.289813    1.323622
     85          1           0       -7.356689   -4.224710    1.984181
     86          1           0       -3.644532   -0.023550   -0.185235
     87          1           0       -4.641098    1.862760    1.067705
     88          1           0       -4.275324    3.558850    1.201860
     89          1           0       -3.851657    3.463405   -1.297771
     90          1           0       -4.656432    1.933161   -1.251254
     91          1           0       -7.020015    3.908066   -2.514180
     92          1           0       -2.132571    4.757676    2.484265
     93          1           0       -0.902078    5.261788    1.350764
     94          1           0       -2.572564    5.175481    0.845696
     95          1           0        0.866502    4.044939    1.424678
     96          1           0       -1.102927   -0.737269    2.412446
     97          1           0       -0.273508   -1.685654    4.491993
     98          1           0        3.093956   -0.749136    2.227852
     99          1           0        1.989380   -2.719007    5.361836
    100          1           0        3.452225   -2.117500    4.619312
    101          1           0        2.532357   -1.091747    5.693901
 ---------------------------------------------------------------------

 SCF Done:  E(UPBE1PBE) =  -3880.33228799     A.U. after   69 cycles

 Alpha virt. eigenvalues --    0.94466   0.94739   0.94896   0.95150   0.95824
 Alpha virt. eigenvalues --    0.95915   0.96042   0.96092   0.96598   0.96983
 Alpha virt. eigenvalues --    0.97094   0.97329   0.97551   0.98067   0.98365

  Beta  occ. eigenvalues -- -256.51329 -89.10968 -30.25893 -26.10402 -26.09240
  Beta  occ. eigenvalues --  -26.06946 -19.34251 -19.33787 -19.24804 -19.24652
  Beta  occ. eigenvalues --  -14.54860 -14.49320 -14.49286 -14.49094 -14.48799
  Beta  occ. eigenvalues --  -14.48190 -10.42477 -10.42427 -10.37386 -10.35999
  Beta  occ. eigenvalues --  -10.35975 -10.35632 -10.35551 -10.35546 -10.35419
  Beta  occ. eigenvalues --  -10.35360 -10.35158 -10.34906 -10.33455 -10.33365
  Beta  occ. eigenvalues --  -10.33006 -10.32882 -10.32595 -10.32562 -10.32544
  Beta  occ. eigenvalues --  -10.32466 -10.32421 -10.32351 -10.32341 -10.32265
  Beta  occ. eigenvalues --  -10.32084 -10.31995 -10.31923 -10.31737 -10.31447
  Beta  occ. eigenvalues --  -10.31431 -10.31245 -10.31077 -10.30635 -10.30530
  Beta  occ. eigenvalues --  -10.30459 -10.30444 -10.30382 -10.29939 -10.29359
  Beta  occ. eigenvalues --  -10.29181 -10.29104  -8.09141  -6.02787  -6.02453
  Beta  occ. eigenvalues --   -6.01921  -3.56413  -2.32899  -2.32331  -2.28109
  Beta  occ. eigenvalues --   -1.25124  -1.23934  -1.18324  -1.09837  -1.09515
  Beta  occ. eigenvalues --   -1.09157  -1.08755  -1.08584  -1.07125  -1.01611
  Beta  occ. eigenvalues --   -0.94624  -0.94474  -0.93149  -0.92915  -0.92182
  Beta  occ. eigenvalues --   -0.91741  -0.91096  -0.90848  -0.90548  -0.88284
  Beta  occ. eigenvalues --   -0.87565  -0.86010  -0.85576  -0.85320  -0.84369
  Beta  occ. eigenvalues --   -0.83259  -0.82191  -0.81640  -0.81184  -0.80909
  Beta  occ. eigenvalues --   -0.79690  -0.79496  -0.78816  -0.76851  -0.76645
  Beta  occ. eigenvalues --   -0.75995  -0.75820  -0.73073  -0.72895  -0.72436
  Beta  occ. eigenvalues --   -0.71280  -0.70923  -0.69621  -0.69498  -0.68309
  Beta  occ. eigenvalues --   -0.66403  -0.65940  -0.65065  -0.64380  -0.63691
  Beta  occ. eigenvalues --   -0.62917  -0.61933  -0.61556  -0.60063  -0.59985
  Beta  occ. eigenvalues --   -0.59176  -0.58973  -0.58743  -0.58682  -0.58447
  Beta  occ. eigenvalues --   -0.58424  -0.58056  -0.57406  -0.57126  -0.56713
  Beta  occ. eigenvalues --   -0.56179  -0.55573  -0.55175  -0.54810  -0.54573
  Beta  occ. eigenvalues --   -0.54204  -0.53964  -0.53678  -0.53632  -0.53555
  Beta  occ. eigenvalues --   -0.53477  -0.53220  -0.52993  -0.52733  -0.52297
  Beta  occ. eigenvalues --   -0.52069  -0.51927  -0.51860  -0.51798  -0.51225
  Beta  occ. eigenvalues --   -0.51042  -0.50875  -0.50753  -0.50474  -0.50158
  Beta  occ. eigenvalues --   -0.49843  -0.49750  -0.49518  -0.49334  -0.49058
  Beta  occ. eigenvalues --   -0.48785  -0.48491  -0.48159  -0.47898  -0.47818
  Beta  occ. eigenvalues --   -0.47678  -0.47235  -0.47114  -0.46884  -0.46693
  Beta  occ. eigenvalues --   -0.46519  -0.46334  -0.46159  -0.45719  -0.45292
  Beta  occ. eigenvalues --   -0.45135  -0.44965  -0.44753  -0.44334  -0.43971
  Beta  occ. eigenvalues --   -0.43702  -0.43327  -0.43103  -0.42995  -0.42817
  Beta  occ. eigenvalues --   -0.42172  -0.41408  -0.39733  -0.39709  -0.39355
  Beta  occ. eigenvalues --   -0.37971  -0.37378  -0.36082  -0.35235  -0.34981
  Beta  occ. eigenvalues --   -0.34691  -0.34423  -0.33957  -0.32979  -0.32263
  Beta  occ. eigenvalues --   -0.29774  -0.29380
  Beta virt. eigenvalues --   -0.19615  -0.18066  -0.17575  -0.15673  -0.13463
  Beta virt. eigenvalues --   -0.13072  -0.12085  -0.10410  -0.08073  -0.07322
  Beta virt. eigenvalues --   -0.07088  -0.06447  -0.06321  -0.05582  -0.05284

 Mulliken charges and spin densities:
               1          2
     1  C   -0.370950   0.001784
     2  C    0.158511   0.003013
     3  N   -0.163732  -0.000383
     4  C   -0.220565   0.001392
     5  C   -0.023900  -0.004298
     6  N    0.061790   0.064066
     7  C   -0.346256  -0.001104
     8  C   -0.173261  -0.001675
     9  S    0.047536   0.095144
    10  C   -0.344859   0.000722
    11  Fe  -0.422567   3.008287
    12  C   -0.461157  -0.038752
    13  C   -0.395928  -0.005988
    14  C   -0.514935   0.058702
    15  C   -0.484494   0.008267
    16  N    0.042228  -0.065063
    17  C    0.184308   0.020098
    18  C    0.078323   0.010264
    19  C   -0.166476   0.000204
    20  C    0.301378   0.019462
    21  C   -0.394632   0.000298
    22  C   -0.244288  -0.001541
    23  C   -0.241495   0.000744
    24  C    0.260035   0.000256
    25  O   -0.302992   0.000015
    26  O   -0.368828  -0.000004
    27  N   -0.025654  -0.041066
    28  C    0.222058   0.020382
    29  C    0.001099   0.018933
    30  C   -0.025009  -0.061784
    31  C    0.180510   0.003939
    32  C   -0.367641  -0.000131
    33  C   -0.263872   1.045707
    34  C   -0.352987  -0.063948
    35  N    0.028228  -0.034000
    36  C    0.302433  -0.037537
    37  C   -0.068394   0.139289
    38  C    0.033728  -0.143250
    39  C    0.188939   0.007040
    40  C   -0.383693  -0.004572
    41  C   -0.245596   0.982559
    42  C   -0.320441  -0.065977
    43  N    0.059390  -0.060784
    44  C    0.374490   0.012467
    45  C   -0.153917  -0.000144
    46  C    0.135118   0.011951
    47  C    0.133198   0.022712
    48  C   -0.395493  -0.000004
    49  C   -0.277538  -0.001588
    50  C   -0.229122   0.000703
    51  C    0.286398   0.000147
    52  O   -0.362235   0.000015
    53  O   -0.322881   0.000022
    54  H    0.153088  -0.000046
    55  H    0.154823   0.001731
    56  H    0.149893   0.002875
    57  H    0.113890   0.000187
    58  H    0.134499   0.000087
    59  H    0.131417   0.000569
    60  H    0.133225   0.004517
    61  H    0.126287   0.004501
    62  H    0.140317   0.000611
    63  H    0.112890   0.031299
    64  H    0.141768   0.035922
    65  H    0.164157  -0.047346
    66  H    0.153216   0.002735
    67  H    0.151535   0.004983
    68  H    0.144978  -0.000303
    69  H    0.160345  -0.003722
    70  H    0.140351   0.004661
    71  H    0.137821   0.044570
    72  H    0.146160   0.019936
    73  H    0.159456  -0.048638
    74  H    0.128196  -0.000438
    75  H    0.146921   0.000332
    76  H    0.145658   0.001385
    77  H    0.108174   0.001007
    78  H    0.148161  -0.000091
    79  H    0.161634   0.000070
    80  H    0.139204  -0.000033
    81  H    0.150888  -0.000077
    82  H    0.128341   0.000091
    83  H    0.142062  -0.000014
    84  H    0.135310   0.000085
    85  H    0.354915   0.000057
    86  H    0.128817   0.001792
    87  H    0.130523   0.000342
    88  H    0.152676  -0.000117
    89  H    0.131027  -0.000040
    90  H    0.130711   0.000019
    91  H    0.359198   0.000022
    92  H    0.162347   0.000108
    93  H    0.136380   0.000094
    94  H    0.152571  -0.000119
    95  H    0.109072   0.006692
    96  H    0.179028   0.001314
    97  H    0.249238   0.002107
    98  H    0.154982   0.001172
    99  H    0.135134   0.000155
   100  H    0.149860  -0.000032
   101  H    0.154946  -0.000008
 Sum of Mulliken charges =   1.00000   5.00000

 Dipole moment (field-independent basis, Debye):
    X=              5.9372    Y=             -2.2530    Z=              2.9828  Tot=              7.0159
 Quadrupole moment (field-independent basis, Debye-Ang):
   XX=           -258.9739   YY=           -251.6916   ZZ=           -269.8561
   XY=             10.5489   XZ=             -3.8586   YZ=            -21.5297

 Summary of Natural Population Analysis:

                                       Natural Population
                Natural  -----------------------------------------------
    Atom  No    Charge         Core      Valence    Rydberg      Total
 -----------------------------------------------------------------------
      C    1   -0.31916      0.99970     2.31608    0.00337     3.31916
      C    2    0.04940      0.99960     1.94182    0.00918     2.95060
      N    3   -0.22568      0.99957     2.71514    0.01097     3.72568
      C    4   -0.02763      0.99948     2.01904    0.00912     3.02763
      C    5    0.09612      0.99961     1.89229    0.01197     2.90388
      N    6   -0.16854      0.99971     2.63645    0.03238     3.66854
      C    7   -0.29915      0.99972     2.29363    0.00580     3.29915
      C    8   -0.29220      0.99969     2.28021    0.01231     3.29220
      S    9    0.33545      4.99922     2.64300    0.02232     7.66455
      C   10   -0.36864      0.99964     2.35909    0.00992     3.36864
     Fe   11    1.57383      8.99501     2.39829    0.03287    11.42617
      C   12   -0.13793      0.99947     2.12977    0.00870     3.13793
      C   13   -0.11360      0.99942     2.10589    0.00829     3.11360
      C   14   -0.08265      0.99956     2.07551    0.00757     3.08265
      C   15   -0.10689      0.99946     2.09930    0.00813     3.10689
      N   16   -0.21096      0.99967     2.68833    0.02297     3.71096
      C   17    0.09256      0.99951     1.89742    0.01050     2.90744
      C   18    0.00946      0.99941     1.98183    0.00930     2.99054
      C   19   -0.00953      0.99923     2.00142    0.00888     3.00953
      C   20    0.08337      0.99937     1.90639    0.01086     2.91663
      C   21   -0.31425      0.99969     2.31105    0.00350     3.31425
      C   22   -0.21379      0.99966     2.20668    0.00745     3.21379
      C   23   -0.24508      0.99962     2.23739    0.00807     3.24508
      C   24    0.38140      0.99976     1.60084    0.01800     2.61860
      O   25   -0.31719      0.99980     3.30367    0.01372     4.31719
      O   26   -0.30437      0.99989     3.29232    0.01215     4.30437
      N   27   -0.21075      0.99967     2.68951    0.02157     3.71075
      C   28    0.08709      0.99951     1.90222    0.01117     2.91291
      C   29    0.01713      0.99941     1.97563    0.00783     2.98287
      C   30   -0.07145      0.99938     2.06220    0.00987     3.07145
      C   31    0.08484      0.99949     1.90567    0.01000     2.91516
      C   32   -0.31564      0.99969     2.31254    0.00340     3.31564
      C   33    0.44733      0.99972     1.54839    0.00456     2.55267
      C   34   -0.35723      0.99972     2.35420    0.00331     3.35723
      N   35   -0.20068      0.99968     2.67801    0.02299     3.70068
      C   36    0.06313      0.99951     1.92757    0.00980     2.93687
      C   37    0.04554      0.99933     1.94644    0.00869     2.95446
      C   38   -0.09315      0.99940     2.08434    0.00941     3.09315
      C   39    0.10388      0.99951     1.88601    0.01060     2.89612
      C   40   -0.31958      0.99969     2.31372    0.00617     3.31958
      C   41    0.41801      0.99974     1.57798    0.00427     2.58199
      C   42   -0.35672      0.99972     2.35367    0.00333     3.35672
      N   43   -0.21087      0.99968     2.68985    0.02134     3.71087
      C   44    0.07693      0.99941     1.91248    0.01119     2.92307
      C   45   -0.00914      0.99927     2.00106    0.00881     3.00914
      C   46    0.00917      0.99938     1.98232    0.00913     2.99083
      C   47    0.08354      0.99949     1.90711    0.00986     2.91646
      C   48   -0.31381      0.99969     2.31056    0.00356     3.31381
      C   49   -0.21329      0.99966     2.20621    0.00742     3.21329
      C   50   -0.24905      0.99961     2.24079    0.00866     3.24905
      C   51    0.38323      0.99975     1.59951    0.01751     2.61677
      O   52   -0.29800      0.99990     3.28634    0.01176     4.29800
      O   53   -0.32333      0.99981     3.30981    0.01372     4.32333
      H   54    0.12021      0.00000     0.37938    0.00041     0.37979
      H   55    0.11535      0.00000     0.38407    0.00059     0.38465
      H   56    0.11673      0.00000     0.38257    0.00069     0.38327
      H   57    0.10580      0.00000     0.39305    0.00115     0.39420
      H   58    0.11108      0.00000     0.38841    0.00051     0.38892
      H   59    0.10798      0.00000     0.39138    0.00064     0.39202
      H   60    0.11723      0.00000     0.38205    0.00072     0.38277
      H   61    0.11078      0.00000     0.38799    0.00123     0.38922
      H   62    0.11267      0.00000     0.38676    0.00057     0.38733
      H   63    0.12075      0.00000     0.37858    0.00066     0.37925
      H   64    0.13034      0.00000     0.36918    0.00048     0.36966
      H   65    0.08584      0.00000     0.41343    0.00073     0.41416
      H   66    0.11763      0.00000     0.38182    0.00055     0.38237
      H   67    0.11895      0.00000     0.38047    0.00057     0.38105
      H   68    0.11558      0.00000     0.38387    0.00055     0.38442
      H   69    0.11330      0.00000     0.38560    0.00110     0.38670
      H   70    0.11236      0.00000     0.38704    0.00060     0.38764
      H   71    0.13330      0.00000     0.36622    0.00048     0.36670
      H   72    0.12463      0.00000     0.37486    0.00052     0.37537
      H   73    0.08455      0.00000     0.41463    0.00083     0.41545
      H   74    0.10596      0.00000     0.39349    0.00055     0.39404
      H   75    0.11422      0.00000     0.38512    0.00067     0.38578
      H   76    0.11519      0.00000     0.38415    0.00067     0.38481
      H   77    0.11563      0.00000     0.38292    0.00145     0.38437
      H   78    0.11300      0.00000     0.38640    0.00060     0.38700
      H   79    0.11652      0.00000     0.38284    0.00064     0.38348
      H   80    0.10975      0.00000     0.38967    0.00058     0.39025
      H   81    0.12261      0.00000     0.37669    0.00070     0.37739
      H   82    0.11294      0.00000     0.38634    0.00072     0.38706
      H   83    0.11411      0.00000     0.38523    0.00066     0.38589
      H   84    0.11357      0.00000     0.38575    0.00068     0.38643
      H   85    0.25824      0.00000     0.24037    0.00138     0.24176
      H   86    0.11347      0.00000     0.38518    0.00134     0.38653
      H   87    0.11417      0.00000     0.38507    0.00076     0.38583
      H   88    0.11910      0.00000     0.38018    0.00071     0.38090
      H   89    0.11160      0.00000     0.38772    0.00068     0.38840
      H   90    0.11586      0.00000     0.38352    0.00061     0.38414
      H   91    0.25974      0.00000     0.23895    0.00131     0.24026
      H   92    0.11534      0.00000     0.38402    0.00064     0.38466
      H   93    0.11021      0.00000     0.38922    0.00057     0.38979
      H   94    0.11342      0.00000     0.38596    0.00063     0.38658
      H   95    0.11277      0.00000     0.38608    0.00116     0.38723
      H   96    0.11111      0.00000     0.38804    0.00085     0.38889
      H   97    0.21450      0.00000     0.28471    0.00078     0.28550
      H   98    0.11658      0.00000     0.38271    0.00071     0.38342
      H   99    0.11084      0.00000     0.38847    0.00068     0.38916
      H  100    0.11883      0.00000     0.38067    0.00051     0.38117
      H  101    0.11415      0.00000     0.38510    0.00075     0.38585
 =======================================================================
   * Total *    3.00001     64.97328   136.40291    0.62380   201.99999

 Normal termination of Gaussian 16 at Thu Feb  9 04:50:20 2023.
