 Gaussian 16, Revision A.03,
 Gaussian 16:  ES64L-G16RevA.03 25-Dec-2016

 ----------------------------------------------------------------------
 # PBE1PBE/def2TZVP empiricaldispersion=GD3BJ scf=maxcycle=999 geom=che
 ck pop=nbo
 ----------------------------------------------------------------------

 ---------
 1ycc_II_Q
 ---------
 Structure from the checkpoint file:  "1ycc_II_Q.chk"
 Charge =  0 Multiplicity = 5

                         Standard orientation:
 ---------------------------------------------------------------------
 Center     Atomic      Atomic             Coordinates (Angstroms)
 Number     Number       Type             X           Y           Z
 ---------------------------------------------------------------------
      1          6           0        2.468053   -1.856172    4.947966
      2          6           0        1.666425   -1.350076    3.778661
      3          7           0        0.317816   -1.358164    3.755049
      4          6           0        2.081531   -0.875037    2.550414
      5          6           0       -0.074217   -0.890456    2.663821
      6          7           0        0.969297   -0.598287    1.830413
      7          6           0       -0.714350    2.898424   -2.707884
      8          6           0        0.599624    2.080160   -2.778552
      9         16           0        0.437218    0.436133   -2.342520
     10          6           0        1.839321   -0.243717   -3.234893
     11         26           0        0.816983   -0.072263   -0.078276
     12          6           0       -2.580619   -0.055763   -0.075910
     13          6           0        0.757676   -3.436856   -0.536266
     14          6           0        4.125144    0.014980   -0.594566
     15          6           0        0.853608    3.073536    0.976226
     16          7           0       -0.619487   -1.408880   -0.253213
     17          6           0       -1.955818   -1.284882   -0.229828
     18          6           0       -2.645860   -2.509009   -0.702994
     19          6           0       -1.688306   -3.432487   -0.795038
     20          6           0       -0.441805   -2.844899   -0.572476
     21          6           0       -1.900671   -4.930640   -1.236441
     22          6           0       -4.143698   -2.599479   -0.767465
     23          6           0       -4.687493   -3.074947    0.618723
     24          6           0       -6.156339   -3.458294    0.715814
     25          8           0       -6.507938   -3.796065    1.851948
     26          8           0       -6.895881   -3.401976   -0.290146
     27          7           0        2.206568   -1.456222   -0.484016
     28          6           0        2.001049   -2.829273   -0.420940
     29          6           0        3.306174   -3.432146   -0.675712
     30          6           0        4.269967   -2.482026   -0.764130
     31          6           0        3.531936   -1.261085   -0.580928
     32          6           0        3.500322   -4.992310   -0.664877
     33          6           0        5.764094   -2.577358   -0.928013
     34          6           0        6.231394   -2.702312   -2.387389
     35          7           0        2.207380    1.328924    0.163900
     36          6           0        3.543131    1.256615   -0.090955
     37          6           0        4.334408    2.371910    0.252100
     38          6           0        3.401044    3.259365    0.654339
     39          6           0        2.099018    2.596381    0.686443
     40          6           0        5.811506    2.572728    0.104562
     41          6           0        3.543194    4.642936    1.361482
     42          6           0        4.449739    5.606273    0.562394
     43          7           0       -0.593690    1.274532    0.380739
     44          6           0       -0.386635    2.578135    0.816021
     45          6           0       -1.608700    3.207002    1.016576
     46          6           0       -2.581773    2.341366    0.689408
     47          6           0       -1.933053    1.124877    0.206958
     48          6           0       -1.821529    4.725724    1.460971
     49          6           0       -4.094221    2.672155    0.631007
     50          6           0       -4.591709    2.890939   -0.778631
     51          6           0       -5.926610    3.587227   -0.967910
     52          8           0       -6.737528    3.542358   -0.003672
     53          8           0       -6.142557    3.989235   -2.133287
     54          1           0        1.638988   -1.263201   -3.490666
     55          1           0        2.002328    0.322647   -4.127955
     56          1           0        2.712130   -0.195707   -2.617804
     57          1           0       -1.167102    2.763892   -1.747771
     58          1           0       -0.497249    3.935402   -2.857693
     59          1           0       -1.386035    2.561011   -3.469390
     60          1           0        0.974556    2.128807   -3.779532
     61          1           0        1.315696    2.533772   -2.125577
     62          1           0        4.598017    6.504839    1.124080
     63          1           0        5.395010    5.138740    0.381354
     64          1           0        3.983845    5.842214   -0.371509
     65          1           0        3.070185    4.894379    2.287731
     66          1           0        6.329698    1.750415    0.551976
     67          1           0        6.061759    2.629332   -0.934221
     68          1           0        6.098151    3.481879    0.590544
     69          1           0        5.105330    0.082893   -1.018267
     70          1           0        5.409389   -3.008503   -3.000131
     71          1           0        6.596432   -1.755683   -2.727302
     72          1           0        7.013583   -3.429713   -2.450395
     73          1           0        6.441859   -2.559651   -0.100232
     74          1           0        2.557399   -5.467879   -0.492743
     75          1           0        3.892759   -5.309454   -1.608441
     76          1           0        4.182938   -5.261382    0.113927
     77          1           0        0.758953   -4.504696   -0.604211
     78          1           0       -2.902786   -5.230290   -1.010887
     79          1           0       -1.730031   -5.019969   -2.288963
     80          1           0       -1.213359   -5.558679   -0.709119
     81          1           0       -4.427717   -3.301525   -1.523351
     82          1           0       -4.550689   -1.637841   -1.000942
     83          1           0       -4.110003   -3.923863    0.919968
     84          1           0       -4.509784   -2.289813    1.323622
     85          1           0       -7.356689   -4.224710    1.984181
     86          1           0       -3.644532   -0.023550   -0.185235
     87          1           0       -4.641098    1.862760    1.067705
     88          1           0       -4.275324    3.558850    1.201860
     89          1           0       -3.851657    3.463405   -1.297771
     90          1           0       -4.656432    1.933161   -1.251254
     91          1           0       -7.020015    3.908066   -2.514180
     92          1           0       -2.132571    4.757676    2.484265
     93          1           0       -0.902078    5.261788    1.350764
     94          1           0       -2.572564    5.175481    0.845696
     95          1           0        0.866502    4.044939    1.424678
     96          1           0       -1.102927   -0.737269    2.412446
     97          1           0       -0.273508   -1.685654    4.491993
     98          1           0        3.093956   -0.749136    2.227852
     99          1           0        1.989380   -2.719007    5.361836
    100          1           0        3.452225   -2.117500    4.619312
    101          1           0        2.532357   -1.091747    5.693901
 ---------------------------------------------------------------------

 SCF Done:  E(UPBE1PBE) =  -3880.51542724     A.U. after   77 cycles

 Alpha virt. eigenvalues --    1.04281   1.04418   1.04986   1.05316   1.05439
 Alpha virt. eigenvalues --    1.05851   1.05917   1.06127   1.06360   1.06757
 Alpha virt. eigenvalues --    1.06872   1.07075   1.07619   1.07822   1.08171

  Beta  occ. eigenvalues -- -256.30520 -88.99371 -30.05313 -25.89138 -25.88443
  Beta  occ. eigenvalues --  -25.87037 -19.27479 -19.26937 -19.17701 -19.17628
  Beta  occ. eigenvalues --  -14.44773 -14.37026 -14.36632 -14.36619 -14.35825
  Beta  occ. eigenvalues --  -14.35386 -10.35208 -10.35191 -10.26652 -10.25068
  Beta  occ. eigenvalues --  -10.24053 -10.24000 -10.23712 -10.23526 -10.23525
  Beta  occ. eigenvalues --  -10.23409 -10.23369 -10.23178 -10.22957 -10.22907
  Beta  occ. eigenvalues --  -10.22557 -10.22457 -10.22405 -10.22391 -10.22191
  Beta  occ. eigenvalues --  -10.22150 -10.22118 -10.21879 -10.21727 -10.21710
  Beta  occ. eigenvalues --  -10.21599 -10.21595 -10.21586 -10.21442 -10.21426
  Beta  occ. eigenvalues --  -10.21365 -10.21362 -10.21236 -10.21168 -10.21095
  Beta  occ. eigenvalues --  -10.21018 -10.20945 -10.20655 -10.20647 -10.20595
  Beta  occ. eigenvalues --  -10.19966 -10.19370  -7.97512  -5.91179  -5.90836
  Beta  occ. eigenvalues --   -5.90280  -3.37748  -2.15614  -2.13129  -2.09832
  Beta  occ. eigenvalues --   -1.18296  -1.17035  -1.08001  -1.02512  -1.02075
  Beta  occ. eigenvalues --   -0.97645  -0.96515  -0.96448  -0.95077  -0.90898
  Beta  occ. eigenvalues --   -0.83588  -0.83176  -0.83124  -0.82579  -0.81800
  Beta  occ. eigenvalues --   -0.80935  -0.80556  -0.80141  -0.79995  -0.78513
  Beta  occ. eigenvalues --   -0.77781  -0.76008  -0.75234  -0.74957  -0.74402
  Beta  occ. eigenvalues --   -0.73947  -0.72678  -0.72205  -0.71688  -0.71087
  Beta  occ. eigenvalues --   -0.70361  -0.69855  -0.69215  -0.66493  -0.66020
  Beta  occ. eigenvalues --   -0.65768  -0.65236  -0.63951  -0.63489  -0.62721
  Beta  occ. eigenvalues --   -0.61418  -0.60730  -0.58809  -0.58473  -0.56675
  Beta  occ. eigenvalues --   -0.56036  -0.55332  -0.54312  -0.53720  -0.52791
  Beta  occ. eigenvalues --   -0.52050  -0.51710  -0.51508  -0.51269  -0.51101
  Beta  occ. eigenvalues --   -0.50530  -0.50287  -0.50128  -0.48995  -0.48662
  Beta  occ. eigenvalues --   -0.48587  -0.48537  -0.47749  -0.47311  -0.47087
  Beta  occ. eigenvalues --   -0.45793  -0.45153  -0.45102  -0.44863  -0.44625
  Beta  occ. eigenvalues --   -0.44374  -0.44207  -0.43822  -0.43757  -0.43313
  Beta  occ. eigenvalues --   -0.43207  -0.43180  -0.43061  -0.42997  -0.42774
  Beta  occ. eigenvalues --   -0.42503  -0.42396  -0.42310  -0.41885  -0.41790
  Beta  occ. eigenvalues --   -0.41189  -0.41038  -0.40874  -0.40640  -0.40318
  Beta  occ. eigenvalues --   -0.40066  -0.39802  -0.39589  -0.39503  -0.39230
  Beta  occ. eigenvalues --   -0.38690  -0.38636  -0.38464  -0.38182  -0.37989
  Beta  occ. eigenvalues --   -0.37783  -0.37541  -0.37396  -0.37177  -0.36963
  Beta  occ. eigenvalues --   -0.36762  -0.36593  -0.36137  -0.35681  -0.35214
  Beta  occ. eigenvalues --   -0.34691  -0.34560  -0.34328  -0.33965  -0.33037
  Beta  occ. eigenvalues --   -0.32816  -0.32688  -0.32622  -0.32367  -0.31853
  Beta  occ. eigenvalues --   -0.31498  -0.31266  -0.30352  -0.29177  -0.28054
  Beta  occ. eigenvalues --   -0.27818  -0.27405  -0.26909  -0.25581  -0.24515
  Beta  occ. eigenvalues --   -0.23540  -0.23440  -0.22838  -0.22402  -0.18815
  Beta  occ. eigenvalues --   -0.18599  -0.17666  -0.14830
  Beta virt. eigenvalues --   -0.07777  -0.05694  -0.03776  -0.03535  -0.00144
  Beta virt. eigenvalues --   -0.00064   0.00661   0.01670   0.02048   0.03099
  Beta virt. eigenvalues --    0.03535   0.03871   0.04088   0.04273   0.04564

 Mulliken charges and spin densities:
               1          2
     1  C   -0.386332   0.001645
     2  C    0.172003   0.004210
     3  N   -0.175907  -0.000626
     4  C   -0.220987  -0.001921
     5  C   -0.027441  -0.003969
     6  N    0.035423   0.048547
     7  C   -0.338775  -0.001303
     8  C   -0.157249  -0.000634
     9  S    0.014574   0.058265
    10  C   -0.340354   0.001388
    11  Fe  -0.409609   2.077415
    12  C   -0.460966  -0.020393
    13  C   -0.399941  -0.023477
    14  C   -0.520957   0.068502
    15  C   -0.478837  -0.022158
    16  N    0.041188  -0.035656
    17  C    0.155324  -0.021546
    18  C    0.072497   0.025315
    19  C   -0.161307  -0.021994
    20  C    0.281510   0.022131
    21  C   -0.411387   0.001173
    22  C   -0.250209  -0.001887
    23  C   -0.242791   0.000854
    24  C    0.259073   0.000388
    25  O   -0.304288  -0.000003
    26  O   -0.380233  -0.000056
    27  N   -0.040100  -0.012973
    28  C    0.216037   0.025650
    29  C   -0.000371   0.012361
    30  C   -0.026304  -0.072761
    31  C    0.158604   0.000723
    32  C   -0.382253   0.000003
    33  C   -0.276816   1.065623
    34  C   -0.346799  -0.066108
    35  N    0.025238  -0.003812
    36  C    0.283633  -0.065135
    37  C   -0.073423   0.161036
    38  C    0.037208  -0.185278
    39  C    0.163749   0.010119
    40  C   -0.398532  -0.005953
    41  C   -0.267333   0.996725
    42  C   -0.314473  -0.067032
    43  N    0.023434  -0.025479
    44  C    0.363319   0.014739
    45  C   -0.150006  -0.013388
    46  C    0.128246   0.021078
    47  C    0.116358  -0.011871
    48  C   -0.416765   0.001349
    49  C   -0.282040  -0.001423
    50  C   -0.225738   0.000366
    51  C    0.284818   0.000120
    52  O   -0.374279   0.000012
    53  O   -0.324519   0.000022
    54  H    0.138375  -0.000119
    55  H    0.130426   0.001423
    56  H    0.146684   0.001939
    57  H    0.125080   0.000003
    58  H    0.112124   0.000178
    59  H    0.109992   0.000812
    60  H    0.107602   0.003403
    61  H    0.121836   0.004041
    62  H    0.118532   0.000421
    63  H    0.102965   0.030063
    64  H    0.133015   0.035768
    65  H    0.145230  -0.049278
    66  H    0.142344   0.003075
    67  H    0.138046   0.005504
    68  H    0.132131   0.000164
    69  H    0.135277  -0.003993
    70  H    0.138671   0.004513
    71  H    0.127275   0.044380
    72  H    0.124657   0.019349
    73  H    0.138149  -0.050033
    74  H    0.120739  -0.000500
    75  H    0.130026   0.000091
    76  H    0.128631   0.001742
    77  H    0.084384   0.001182
    78  H    0.131536  -0.000148
    79  H    0.146268  -0.000841
    80  H    0.130194  -0.000447
    81  H    0.134174   0.000246
    82  H    0.123453   0.000150
    83  H    0.139124  -0.000028
    84  H    0.138340   0.000084
    85  H    0.342394   0.000097
    86  H    0.103737   0.000582
    87  H    0.119373   0.000402
    88  H    0.136945   0.000174
    89  H    0.131250   0.000029
    90  H    0.131125   0.000043
    91  H    0.348302   0.000015
    92  H    0.145043  -0.000390
    93  H    0.131659   0.000052
    94  H    0.136454  -0.000257
    95  H    0.083437   0.006504
    96  H    0.168153   0.001293
    97  H    0.230731   0.003536
    98  H    0.143436   0.001633
    99  H    0.121300   0.000093
   100  H    0.145431  -0.000036
   101  H    0.141036   0.000161
 Sum of Mulliken charges =  -0.00000   4.00000

 Dipole moment (field-independent basis, Debye):
    X=              2.3504    Y=             -2.4597    Z=              3.1657  Tot=              4.6471
 Quadrupole moment (field-independent basis, Debye-Ang):
   XX=           -323.6495   YY=           -305.9294   ZZ=           -293.6902
   XY=              9.3283   XZ=             -3.0742   YZ=            -25.3640

 Summary of Natural Population Analysis:

                                       Natural Population
                Natural  -----------------------------------------------
    Atom  No    Charge         Core      Valence    Rydberg      Total
 -----------------------------------------------------------------------
      C    1   -0.31725      0.99970     2.31447    0.00307     3.31725
      C    2    0.03650      0.99960     1.95394    0.00996     2.96350
      N    3   -0.23024      0.99957     2.71929    0.01138     3.73024
      C    4   -0.02588      0.99949     2.01684    0.00955     3.02588
      C    5    0.09161      0.99962     1.89601    0.01276     2.90839
      N    6   -0.15339      0.99972     2.62770    0.02597     3.65339
      C    7   -0.29989      0.99972     2.29622    0.00395     3.29989
      C    8   -0.29053      0.99969     2.27962    0.01123     3.29053
      S    9    0.30605      4.99927     2.67341    0.02127     7.69395
      C   10   -0.36839      0.99964     2.35894    0.00981     3.36839
     Fe   11    1.00872      8.99470     2.97031    0.02626    11.99128
      C   12   -0.13675      0.99947     2.12793    0.00935     3.13675
      C   13   -0.12956      0.99943     2.12125    0.00888     3.12956
      C   14   -0.08174      0.99956     2.07405    0.00813     3.08174
      C   15   -0.12450      0.99946     2.11630    0.00873     3.12450
      N   16   -0.18825      0.99968     2.66335    0.02522     3.68825
      C   17    0.05883      0.99953     1.92973    0.01192     2.94117
      C   18    0.00250      0.99941     1.98848    0.00961     2.99750
      C   19   -0.02941      0.99928     2.02131    0.00882     3.02941
      C   20    0.07426      0.99939     1.91514    0.01122     2.92574
      C   21   -0.31433      0.99970     2.31100    0.00363     3.31433
      C   22   -0.21162      0.99966     2.20433    0.00763     3.21162
      C   23   -0.24698      0.99962     2.23906    0.00830     3.24698
      C   24    0.38254      0.99976     1.59954    0.01815     2.61746
      O   25   -0.31852      0.99980     3.30496    0.01376     4.31852
      O   26   -0.31017      0.99989     3.29807    0.01221     4.31017
      N   27   -0.19519      0.99968     2.67407    0.02144     3.69519
      C   28    0.08510      0.99952     1.90444    0.01093     2.91490
      C   29    0.00404      0.99940     1.98806    0.00849     2.99596
      C   30   -0.08200      0.99938     2.07253    0.01010     3.08200
      C   31    0.07182      0.99951     1.91800    0.01068     2.92818
      C   32   -0.31621      0.99970     2.31303    0.00347     3.31621
      C   33    0.44864      0.99972     1.54688    0.00476     2.55136
      C   34   -0.35812      0.99972     2.35502    0.00338     3.35812
      N   35   -0.17409      0.99969     2.64978    0.02462     3.67409
      C   36    0.03648      0.99952     1.95301    0.01098     2.96352
      C   37    0.04568      0.99933     1.94596    0.00903     2.95432
      C   38   -0.11355      0.99941     2.10421    0.00993     3.11355
      C   39    0.08872      0.99952     1.90075    0.01100     2.91128
      C   40   -0.31838      0.99969     2.31506    0.00363     3.31838
      C   41    0.40368      0.99974     1.59195    0.00463     2.59632
      C   42   -0.35638      0.99972     2.35327    0.00338     3.35638
      N   43   -0.19791      0.99969     2.67778    0.02043     3.69791
      C   44    0.07058      0.99943     1.91906    0.01094     2.92942
      C   45   -0.02384      0.99926     2.01542    0.00915     3.02384
      C   46   -0.00005      0.99937     1.99128    0.00940     3.00005
      C   47    0.05944      0.99951     1.93041    0.01064     2.94056
      C   48   -0.31500      0.99969     2.31167    0.00364     3.31500
      C   49   -0.21215      0.99967     2.20493    0.00755     3.21215
      C   50   -0.25037      0.99961     2.24184    0.00892     3.25037
      C   51    0.38424      0.99975     1.59833    0.01768     2.61576
      O   52   -0.30414      0.99990     3.29245    0.01180     4.30414
      O   53   -0.32483      0.99981     3.31126    0.01376     4.32483
      H   54    0.11620      0.00000     0.38337    0.00043     0.38380
      H   55    0.10687      0.00000     0.39230    0.00083     0.39313
      H   56    0.11688      0.00000     0.38233    0.00079     0.38312
      H   57    0.11000      0.00000     0.38871    0.00129     0.39000
      H   58    0.10476      0.00000     0.39456    0.00068     0.39524
      H   59    0.10286      0.00000     0.39634    0.00080     0.39714
      H   60    0.10821      0.00000     0.39087    0.00092     0.39179
      H   61    0.10999      0.00000     0.38874    0.00127     0.39001
      H   62    0.10548      0.00000     0.39385    0.00066     0.39452
      H   63    0.11801      0.00000     0.38127    0.00072     0.38199
      H   64    0.12694      0.00000     0.37256    0.00051     0.37306
      H   65    0.08142      0.00000     0.41777    0.00081     0.41858
      H   66    0.11372      0.00000     0.38554    0.00073     0.38628
      H   67    0.11414      0.00000     0.38514    0.00071     0.38586
      H   68    0.11029      0.00000     0.38900    0.00071     0.38971
      H   69    0.10451      0.00000     0.39432    0.00117     0.39549
      H   70    0.11252      0.00000     0.38686    0.00063     0.38748
      H   71    0.13008      0.00000     0.36941    0.00051     0.36992
      H   72    0.11746      0.00000     0.38196    0.00058     0.38254
      H   73    0.07869      0.00000     0.42040    0.00091     0.42131
      H   74    0.10434      0.00000     0.39508    0.00059     0.39566
      H   75    0.10792      0.00000     0.39133    0.00075     0.39208
      H   76    0.10900      0.00000     0.39026    0.00075     0.39100
      H   77    0.10608      0.00000     0.39235    0.00156     0.39392
      H   78    0.10709      0.00000     0.39225    0.00066     0.39291
      H   79    0.11104      0.00000     0.38820    0.00076     0.38896
      H   80    0.10648      0.00000     0.39287    0.00065     0.39352
      H   81    0.11686      0.00000     0.38242    0.00072     0.38314
      H   82    0.11138      0.00000     0.38787    0.00076     0.38862
      H   83    0.11411      0.00000     0.38520    0.00068     0.38589
      H   84    0.11524      0.00000     0.38403    0.00073     0.38476
      H   85    0.25405      0.00000     0.24436    0.00160     0.24595
      H   86    0.10379      0.00000     0.39479    0.00142     0.39621
      H   87    0.11087      0.00000     0.38835    0.00078     0.38913
      H   88    0.11412      0.00000     0.38514    0.00074     0.38588
      H   89    0.11256      0.00000     0.38674    0.00070     0.38744
      H   90    0.11760      0.00000     0.38175    0.00065     0.38240
      H   91    0.25603      0.00000     0.24249    0.00148     0.24397
      H   92    0.10909      0.00000     0.39018    0.00073     0.39091
      H   93    0.10862      0.00000     0.39077    0.00061     0.39138
      H   94    0.10768      0.00000     0.39163    0.00069     0.39232
      H   95    0.10390      0.00000     0.39481    0.00129     0.39610
      H   96    0.10958      0.00000     0.38950    0.00092     0.39042
      H   97    0.20856      0.00000     0.29065    0.00079     0.29144
      H   98    0.11451      0.00000     0.38473    0.00077     0.38549
      H   99    0.10579      0.00000     0.39352    0.00069     0.39421
      H  100    0.11629      0.00000     0.38323    0.00049     0.38371
      H  101    0.10860      0.00000     0.39065    0.00075     0.39140
 =======================================================================
   * Total *    2.00000     64.97330   137.40219    0.62450   203.00000

 Normal termination of Gaussian 16 at Tue Feb  7 05:07:38 2023.
