 Gaussian 16, Revision A.03,
 Gaussian 16:  ES64L-G16RevA.03 25-Dec-2016

 ----------------------------------------------------------------------
 # PBE1PBE/def2TZVP empiricaldispersion=GD3BJ scf=maxcycle=999 geom=che
 ck pop=nbo
 ----------------------------------------------------------------------

 ----------
 1ycc_III_D
 ----------
 Structure from the checkpoint file:  "1ycc_III_D.chk"
 Charge =  1 Multiplicity = 2

                         Standard orientation:
 ---------------------------------------------------------------------
 Center     Atomic      Atomic             Coordinates (Angstroms)
 Number     Number       Type             X           Y           Z
 ---------------------------------------------------------------------
      1          6           0        2.468053   -1.856172    4.947966
      2          6           0        1.666425   -1.350076    3.778661
      3          7           0        0.317816   -1.358164    3.755049
      4          6           0        2.081531   -0.875037    2.550414
      5          6           0       -0.074217   -0.890456    2.663821
      6          7           0        0.969297   -0.598287    1.830413
      7          6           0       -0.714350    2.898424   -2.707884
      8          6           0        0.599624    2.080160   -2.778552
      9         16           0        0.437218    0.436133   -2.342520
     10          6           0        1.839321   -0.243717   -3.234893
     11         26           0        0.816983   -0.072263   -0.078276
     12          6           0       -2.580619   -0.055763   -0.075910
     13          6           0        0.757676   -3.436856   -0.536266
     14          6           0        4.125144    0.014980   -0.594566
     15          6           0        0.853608    3.073536    0.976226
     16          7           0       -0.619487   -1.408880   -0.253213
     17          6           0       -1.955818   -1.284882   -0.229828
     18          6           0       -2.645860   -2.509009   -0.702994
     19          6           0       -1.688306   -3.432487   -0.795038
     20          6           0       -0.441805   -2.844899   -0.572476
     21          6           0       -1.900671   -4.930640   -1.236441
     22          6           0       -4.143698   -2.599479   -0.767465
     23          6           0       -4.687493   -3.074947    0.618723
     24          6           0       -6.156339   -3.458294    0.715814
     25          8           0       -6.507938   -3.796065    1.851948
     26          8           0       -6.895881   -3.401976   -0.290146
     27          7           0        2.206568   -1.456222   -0.484016
     28          6           0        2.001049   -2.829273   -0.420940
     29          6           0        3.306174   -3.432146   -0.675712
     30          6           0        4.269967   -2.482026   -0.764130
     31          6           0        3.531936   -1.261085   -0.580928
     32          6           0        3.500322   -4.992310   -0.664877
     33          6           0        5.764094   -2.577358   -0.928013
     34          6           0        6.231394   -2.702312   -2.387389
     35          7           0        2.207380    1.328924    0.163900
     36          6           0        3.543131    1.256615   -0.090955
     37          6           0        4.334408    2.371910    0.252100
     38          6           0        3.401044    3.259365    0.654339
     39          6           0        2.099018    2.596381    0.686443
     40          6           0        5.811506    2.572728    0.104562
     41          6           0        3.543194    4.642936    1.361482
     42          6           0        4.449739    5.606273    0.562394
     43          7           0       -0.593690    1.274532    0.380739
     44          6           0       -0.386635    2.578135    0.816021
     45          6           0       -1.608700    3.207002    1.016576
     46          6           0       -2.581773    2.341366    0.689408
     47          6           0       -1.933053    1.124877    0.206958
     48          6           0       -1.821529    4.725724    1.460971
     49          6           0       -4.094221    2.672155    0.631007
     50          6           0       -4.591709    2.890939   -0.778631
     51          6           0       -5.926610    3.587227   -0.967910
     52          8           0       -6.737528    3.542358   -0.003672
     53          8           0       -6.142557    3.989235   -2.133287
     54          1           0        1.638988   -1.263201   -3.490666
     55          1           0        2.002328    0.322647   -4.127955
     56          1           0        2.712130   -0.195707   -2.617804
     57          1           0       -1.167102    2.763892   -1.747771
     58          1           0       -0.497249    3.935402   -2.857693
     59          1           0       -1.386035    2.561011   -3.469390
     60          1           0        0.974556    2.128807   -3.779532
     61          1           0        1.315696    2.533772   -2.125577
     62          1           0        4.598017    6.504839    1.124080
     63          1           0        5.395010    5.138740    0.381354
     64          1           0        3.983845    5.842214   -0.371509
     65          1           0        3.070185    4.894379    2.287731
     66          1           0        6.329698    1.750415    0.551976
     67          1           0        6.061759    2.629332   -0.934221
     68          1           0        6.098151    3.481879    0.590544
     69          1           0        5.105330    0.082893   -1.018267
     70          1           0        5.409389   -3.008503   -3.000131
     71          1           0        6.596432   -1.755683   -2.727302
     72          1           0        7.013583   -3.429713   -2.450395
     73          1           0        6.441859   -2.559651   -0.100232
     74          1           0        2.557399   -5.467879   -0.492743
     75          1           0        3.892759   -5.309454   -1.608441
     76          1           0        4.182938   -5.261382    0.113927
     77          1           0        0.758953   -4.504696   -0.604211
     78          1           0       -2.902786   -5.230290   -1.010887
     79          1           0       -1.730031   -5.019969   -2.288963
     80          1           0       -1.213359   -5.558679   -0.709119
     81          1           0       -4.427717   -3.301525   -1.523351
     82          1           0       -4.550689   -1.637841   -1.000942
     83          1           0       -4.110003   -3.923863    0.919968
     84          1           0       -4.509784   -2.289813    1.323622
     85          1           0       -7.356689   -4.224710    1.984181
     86          1           0       -3.644532   -0.023550   -0.185235
     87          1           0       -4.641098    1.862760    1.067705
     88          1           0       -4.275324    3.558850    1.201860
     89          1           0       -3.851657    3.463405   -1.297771
     90          1           0       -4.656432    1.933161   -1.251254
     91          1           0       -7.020015    3.908066   -2.514180
     92          1           0       -2.132571    4.757676    2.484265
     93          1           0       -0.902078    5.261788    1.350764
     94          1           0       -2.572564    5.175481    0.845696
     95          1           0        0.866502    4.044939    1.424678
     96          1           0       -1.102927   -0.737269    2.412446
     97          1           0       -0.273508   -1.685654    4.491993
     98          1           0        3.093956   -0.749136    2.227852
     99          1           0        1.989380   -2.719007    5.361836
    100          1           0        3.452225   -2.117500    4.619312
    101          1           0        2.532357   -1.091747    5.693901
 ---------------------------------------------------------------------

 SCF Done:  E(UPBE1PBE) =  -3880.36379827     A.U. after   70 cycles

 Alpha virt. eigenvalues --    0.95446   0.96096   0.96174   0.96212   0.96281
 Alpha virt. eigenvalues --    0.96748   0.97246   0.97352   0.97726   0.97953
 Alpha virt. eigenvalues --    0.98385   0.98660   0.98750   0.99160   0.99287

  Beta  occ. eigenvalues -- -256.50288 -89.14188 -30.26807 -26.09876 -26.09597
  Beta  occ. eigenvalues --  -26.08945 -19.34154 -19.33708 -19.24697 -19.24540
  Beta  occ. eigenvalues --  -14.55764 -14.51065 -14.48603 -14.48600 -14.48295
  Beta  occ. eigenvalues --  -14.48043 -10.42360 -10.42308 -10.38522 -10.36006
  Beta  occ. eigenvalues --  -10.35355 -10.35312 -10.35013 -10.34957 -10.34859
  Beta  occ. eigenvalues --  -10.34832 -10.34683 -10.34368 -10.34148 -10.33631
  Beta  occ. eigenvalues --  -10.33399 -10.33021 -10.32800 -10.32515 -10.32462
  Beta  occ. eigenvalues --  -10.32430 -10.32183 -10.32086 -10.32034 -10.31851
  Beta  occ. eigenvalues --  -10.31748 -10.31624 -10.31607 -10.31397 -10.31360
  Beta  occ. eigenvalues --  -10.31287 -10.31022 -10.30938 -10.30365 -10.30306
  Beta  occ. eigenvalues --  -10.30241 -10.30175 -10.30069 -10.29790 -10.29600
  Beta  occ. eigenvalues --  -10.29126 -10.28858  -8.12134  -6.05732  -6.05465
  Beta  occ. eigenvalues --   -6.05051  -3.59142  -2.34459  -2.34371  -2.33903
  Beta  occ. eigenvalues --   -1.25024  -1.23850  -1.19418  -1.09405  -1.09195
  Beta  occ. eigenvalues --   -1.09048  -1.08044  -1.07939  -1.06481  -1.03033
  Beta  occ. eigenvalues --   -0.96243  -0.94076  -0.92822  -0.92668  -0.91872
  Beta  occ. eigenvalues --   -0.91340  -0.91332  -0.90594  -0.90437  -0.88021
  Beta  occ. eigenvalues --   -0.87235  -0.86431  -0.86007  -0.85526  -0.84406
  Beta  occ. eigenvalues --   -0.83056  -0.81983  -0.81867  -0.81310  -0.80541
  Beta  occ. eigenvalues --   -0.79340  -0.79147  -0.78546  -0.77952  -0.77068
  Beta  occ. eigenvalues --   -0.76240  -0.75391  -0.73958  -0.72800  -0.72304
  Beta  occ. eigenvalues --   -0.71851  -0.70924  -0.70683  -0.69228  -0.67792
  Beta  occ. eigenvalues --   -0.67148  -0.65704  -0.64683  -0.64277  -0.63402
  Beta  occ. eigenvalues --   -0.62476  -0.61491  -0.61068  -0.59768  -0.59671
  Beta  occ. eigenvalues --   -0.59577  -0.59172  -0.58972  -0.58685  -0.58473
  Beta  occ. eigenvalues --   -0.58289  -0.58120  -0.57761  -0.56958  -0.56734
  Beta  occ. eigenvalues --   -0.56341  -0.55730  -0.55460  -0.54950  -0.54621
  Beta  occ. eigenvalues --   -0.54475  -0.54076  -0.53953  -0.53950  -0.53637
  Beta  occ. eigenvalues --   -0.53396  -0.53278  -0.53140  -0.52869  -0.52466
  Beta  occ. eigenvalues --   -0.52360  -0.51806  -0.51622  -0.51517  -0.51419
  Beta  occ. eigenvalues --   -0.50825  -0.50734  -0.50591  -0.50362  -0.49913
  Beta  occ. eigenvalues --   -0.49898  -0.49566  -0.49403  -0.49202  -0.48895
  Beta  occ. eigenvalues --   -0.48702  -0.48461  -0.48204  -0.47730  -0.47628
  Beta  occ. eigenvalues --   -0.47546  -0.47406  -0.47283  -0.47003  -0.46747
  Beta  occ. eigenvalues --   -0.46583  -0.46288  -0.46039  -0.45991  -0.45895
  Beta  occ. eigenvalues --   -0.45252  -0.44919  -0.44745  -0.44206  -0.44170
  Beta  occ. eigenvalues --   -0.43880  -0.43259  -0.43072  -0.42891  -0.42524
  Beta  occ. eigenvalues --   -0.42265  -0.40996  -0.39625  -0.39607  -0.39314
  Beta  occ. eigenvalues --   -0.38205  -0.37814  -0.37475  -0.35936  -0.35576
  Beta  occ. eigenvalues --   -0.35014  -0.34602  -0.34402  -0.33979  -0.33467
  Beta  occ. eigenvalues --   -0.32980  -0.30080  -0.29387  -0.27913
  Beta virt. eigenvalues --   -0.19651  -0.16559  -0.15878  -0.13534  -0.12577
  Beta virt. eigenvalues --   -0.10694  -0.10104  -0.08026  -0.07240  -0.06789
  Beta virt. eigenvalues --   -0.06359  -0.06071  -0.05338  -0.05191  -0.05060

 Mulliken charges and spin densities:
               1          2
     1  C   -0.369263  -0.000415
     2  C    0.162581  -0.000660
     3  N   -0.159531  -0.000481
     4  C   -0.219212   0.000688
     5  C   -0.016847   0.003504
     6  N    0.088360  -0.035574
     7  C   -0.350236  -0.000092
     8  C   -0.178089   0.002231
     9  S    0.102262  -0.039123
    10  C   -0.344417   0.006073
    11  Fe  -0.498515   1.150295
    12  C   -0.453487   0.013368
    13  C   -0.391107  -0.014656
    14  C   -0.515030  -0.048414
    15  C   -0.468159  -0.021433
    16  N    0.050115  -0.033637
    17  C    0.166070  -0.012361
    18  C    0.078076   0.024098
    19  C   -0.165668  -0.008346
    20  C    0.289417   0.015803
    21  C   -0.394999   0.000002
    22  C   -0.243124  -0.002120
    23  C   -0.241920   0.001142
    24  C    0.260235   0.000195
    25  O   -0.303335   0.000012
    26  O   -0.369246   0.000015
    27  N    0.001749  -0.053215
    28  C    0.212252   0.020262
    29  C   -0.000160   0.036339
    30  C   -0.026807  -0.077395
    31  C    0.159560   0.047395
    32  C   -0.368657  -0.001991
    33  C   -0.264967   1.051362
    34  C   -0.353377  -0.064663
    35  N    0.034666  -0.069076
    36  C    0.290001   0.046136
    37  C   -0.067877  -0.115460
    38  C    0.034005   0.141136
    39  C    0.166863   0.010253
    40  C   -0.383168   0.003103
    41  C   -0.248437  -0.990620
    42  C   -0.319919   0.066318
    43  N    0.072390  -0.027110
    44  C    0.356059   0.000481
    45  C   -0.155492  -0.006187
    46  C    0.135088   0.011966
    47  C    0.114017  -0.014223
    48  C   -0.396550   0.000088
    49  C   -0.276709  -0.001161
    50  C   -0.228601   0.000511
    51  C    0.286658   0.000029
    52  O   -0.362274   0.000013
    53  O   -0.323734   0.000025
    54  H    0.158902  -0.000472
    55  H    0.159606  -0.000476
    56  H    0.160127  -0.001394
    57  H    0.122428   0.000167
    58  H    0.138259  -0.000060
    59  H    0.133917  -0.000065
    60  H    0.141171  -0.001497
    61  H    0.140217  -0.001542
    62  H    0.139313  -0.000640
    63  H    0.112250  -0.031318
    64  H    0.139404  -0.036212
    65  H    0.162550   0.047835
    66  H    0.152380  -0.001616
    67  H    0.149609  -0.003611
    68  H    0.144590   0.000199
    69  H    0.158333   0.000937
    70  H    0.138708   0.004661
    71  H    0.136491   0.044530
    72  H    0.145178   0.019993
    73  H    0.157356  -0.049185
    74  H    0.127482  -0.000395
    75  H    0.145452   0.000744
    76  H    0.143872   0.002048
    77  H    0.105913   0.000630
    78  H    0.147178  -0.000081
    79  H    0.159630  -0.000232
    80  H    0.138756  -0.000142
    81  H    0.149679   0.000297
    82  H    0.127592   0.000272
    83  H    0.141735  -0.000012
    84  H    0.134820  -0.000015
    85  H    0.354537   0.000061
    86  H    0.126698  -0.001065
    87  H    0.129254   0.000274
    88  H    0.151802   0.000008
    89  H    0.128466  -0.000045
    90  H    0.130331  -0.000017
    91  H    0.358804   0.000005
    92  H    0.160906  -0.000251
    93  H    0.135821  -0.000188
    94  H    0.151038  -0.000162
    95  H    0.107232  -0.005855
    96  H    0.186470  -0.000265
    97  H    0.254305   0.000017
    98  H    0.162696  -0.000253
    99  H    0.137236  -0.000040
   100  H    0.152636   0.000014
   101  H    0.157362  -0.000019
 Sum of Mulliken charges =   1.00000   1.00000

 Dipole moment (field-independent basis, Debye):
    X=              5.8795    Y=             -2.1934    Z=              2.6715  Tot=              6.8203
 Quadrupole moment (field-independent basis, Debye-Ang):
   XX=           -264.0602   YY=           -255.7344   ZZ=           -262.5231
   XY=             10.5263   XZ=             -3.2452   YZ=            -25.0530

 Summary of Natural Population Analysis:

                                       Natural Population
                Natural  -----------------------------------------------
    Atom  No    Charge         Core      Valence    Rydberg      Total
 -----------------------------------------------------------------------
      C    1   -0.31943      0.99970     2.31665    0.00308     3.31943
      C    2    0.04797      0.99961     1.94306    0.00936     2.95203
      N    3   -0.22495      0.99957     2.71421    0.01116     3.72495
      C    4   -0.02353      0.99949     2.01481    0.00923     3.02353
      C    5    0.10568      0.99962     1.88294    0.01177     2.89432
      N    6   -0.18561      0.99968     2.65843    0.02750     3.68561
      C    7   -0.30036      0.99972     2.29505    0.00559     3.30036
      C    8   -0.29542      0.99968     2.28535    0.01039     3.29542
      S    9    0.32277      4.99929     2.65709    0.02085     7.67723
      C   10   -0.37029      0.99963     2.36185    0.00880     3.37029
     Fe   11    0.60287      8.99509     3.37443    0.02760    12.39713
      C   12   -0.12379      0.99947     2.11531    0.00902     3.12379
      C   13   -0.12104      0.99943     2.11307    0.00855     3.12104
      C   14   -0.13192      0.99956     2.12441    0.00794     3.13192
      C   15   -0.10875      0.99946     2.10078    0.00851     3.10875
      N   16   -0.19561      0.99966     2.67196    0.02400     3.69561
      C   17    0.07731      0.99952     1.91225    0.01091     2.92269
      C   18    0.01423      0.99941     1.97691    0.00945     2.98577
      C   19   -0.01673      0.99928     2.00883    0.00863     3.01673
      C   20    0.08061      0.99938     1.90950    0.01050     2.91939
      C   21   -0.31442      0.99969     2.31118    0.00355     3.31442
      C   22   -0.21413      0.99966     2.20695    0.00752     3.21413
      C   23   -0.24498      0.99962     2.23727    0.00810     3.24498
      C   24    0.38142      0.99976     1.60081    0.01801     2.61858
      O   25   -0.31732      0.99980     3.30380    0.01372     4.31732
      O   26   -0.30454      0.99989     3.29249    0.01215     4.30454
      N   27   -0.21937      0.99966     2.69433    0.02538     3.71937
      C   28    0.08810      0.99952     1.90145    0.01093     2.91190
      C   29    0.02262      0.99941     1.97007    0.00791     2.97738
      C   30   -0.07907      0.99939     2.06970    0.00998     3.07907
      C   31    0.09650      0.99950     1.89348    0.01053     2.90350
      C   32   -0.31663      0.99969     2.31352    0.00341     3.31663
      C   33    0.44798      0.99972     1.54770    0.00460     2.55202
      C   34   -0.35747      0.99972     2.35442    0.00333     3.35747
      N   35   -0.21470      0.99967     2.69101    0.02401     3.71470
      C   36    0.09496      0.99951     1.89526    0.01026     2.90504
      C   37   -0.06867      0.99935     2.06031    0.00901     3.06867
      C   38    0.01520      0.99938     1.97546    0.00996     2.98480
      C   39    0.07108      0.99953     1.91840    0.01099     2.92892
      C   40   -0.31491      0.99969     2.30860    0.00662     3.31491
      C   41   -0.50279      0.99975     2.49591    0.00713     3.50279
      C   42   -0.31280      0.99971     2.30900    0.00410     3.31280
      N   43   -0.19995      0.99967     2.67579    0.02449     3.69995
      C   44    0.06451      0.99942     1.92498    0.01109     2.93549
      C   45   -0.01281      0.99927     2.00466    0.00888     3.01281
      C   46    0.00411      0.99938     1.98726    0.00925     2.99589
      C   47    0.06718      0.99950     1.92287    0.01044     2.93282
      C   48   -0.31442      0.99969     2.31117    0.00356     3.31442
      C   49   -0.21318      0.99966     2.20607    0.00745     3.21318
      C   50   -0.24905      0.99961     2.24076    0.00868     3.24905
      C   51    0.38313      0.99975     1.59961    0.01752     2.61687
      O   52   -0.29800      0.99990     3.28634    0.01176     4.29800
      O   53   -0.32365      0.99981     3.31013    0.01371     4.32365
      H   54    0.12205      0.00000     0.37752    0.00043     0.37795
      H   55    0.11541      0.00000     0.38391    0.00068     0.38459
      H   56    0.12038      0.00000     0.37889    0.00072     0.37962
      H   57    0.10909      0.00000     0.38977    0.00114     0.39091
      H   58    0.11268      0.00000     0.38682    0.00050     0.38732
      H   59    0.10812      0.00000     0.39129    0.00059     0.39188
      H   60    0.11716      0.00000     0.38204    0.00080     0.38284
      H   61    0.11489      0.00000     0.38392    0.00119     0.38511
      H   62    0.11081      0.00000     0.38859    0.00060     0.38919
      H   63    0.09243      0.00000     0.40640    0.00117     0.40757
      H   64    0.09412      0.00000     0.40467    0.00121     0.40588
      H   65    0.11462      0.00000     0.38454    0.00084     0.38538
      H   66    0.11545      0.00000     0.38396    0.00060     0.38455
      H   67    0.11415      0.00000     0.38516    0.00069     0.38585
      H   68    0.11469      0.00000     0.38476    0.00056     0.38531
      H   69    0.11308      0.00000     0.38577    0.00115     0.38692
      H   70    0.11193      0.00000     0.38747    0.00061     0.38807
      H   71    0.13274      0.00000     0.36677    0.00048     0.36726
      H   72    0.12427      0.00000     0.37521    0.00052     0.37573
      H   73    0.08386      0.00000     0.41530    0.00084     0.41614
      H   74    0.10568      0.00000     0.39376    0.00056     0.39432
      H   75    0.11390      0.00000     0.38543    0.00067     0.38610
      H   76    0.11480      0.00000     0.38453    0.00067     0.38520
      H   77    0.11373      0.00000     0.38478    0.00150     0.38627
      H   78    0.11251      0.00000     0.38687    0.00061     0.38749
      H   79    0.11585      0.00000     0.38348    0.00066     0.38415
      H   80    0.10955      0.00000     0.38986    0.00059     0.39045
      H   81    0.12230      0.00000     0.37700    0.00070     0.37770
      H   82    0.11287      0.00000     0.38641    0.00073     0.38713
      H   83    0.11403      0.00000     0.38531    0.00067     0.38597
      H   84    0.11350      0.00000     0.38581    0.00069     0.38650
      H   85    0.25811      0.00000     0.24050    0.00139     0.24189
      H   86    0.11127      0.00000     0.38736    0.00138     0.38873
      H   87    0.11376      0.00000     0.38548    0.00076     0.38624
      H   88    0.11875      0.00000     0.38054    0.00072     0.38125
      H   89    0.11097      0.00000     0.38835    0.00069     0.38903
      H   90    0.11576      0.00000     0.38362    0.00062     0.38424
      H   91    0.25958      0.00000     0.23910    0.00132     0.24042
      H   92    0.11472      0.00000     0.38462    0.00066     0.38528
      H   93    0.10997      0.00000     0.38946    0.00058     0.39003
      H   94    0.11279      0.00000     0.38658    0.00063     0.38721
      H   95    0.11076      0.00000     0.38760    0.00164     0.38924
      H   96    0.11365      0.00000     0.38547    0.00088     0.38635
      H   97    0.21592      0.00000     0.28334    0.00074     0.28408
      H   98    0.11880      0.00000     0.38045    0.00075     0.38120
      H   99    0.11163      0.00000     0.38775    0.00062     0.38837
      H  100    0.11989      0.00000     0.37965    0.00046     0.38011
      H  101    0.11511      0.00000     0.38424    0.00065     0.38489
 =======================================================================
   * Total *    1.00000     64.97351   138.39777    0.62873   204.00000

 Normal termination of Gaussian 16 at Tue Feb  7 01:21:47 2023.
