 Gaussian 16, Revision A.03,

 ----------------------------------------------------------------------
 # PBE1PBE/def2TZVP empiricaldispersion=GD3BJ int=(grid=ultrafine) geom
 =check guess=read pop=nbo
 ----------------------------------------------------------------------

 -------------
 1ctj_II_S_nbo
 -------------
 Structure from the checkpoint file:  "1ctj_II_S.chk"
 Charge =  0 Multiplicity = 1

 SCF Done:  E(RPBE1PBE) =  -3881.89780393     A.U. after    3 cycles

 Summary of Natural Population Analysis:

                                       Natural Population
                Natural  -----------------------------------------------
    Atom  No    Charge         Core      Valence    Rydberg      Total
 -----------------------------------------------------------------------
      C    1   -0.63792      1.99938     4.63189    0.00665     6.63792
      C    2    0.09688      1.99908     3.88496    0.01908     5.90312
      N    3   -0.49148      1.99938     5.47191    0.02019     7.49148
      C    4   -0.07726      1.99885     4.05926    0.01914     6.07726
      C    5    0.19993      1.99929     3.78104    0.01973     5.80007
      N    6   -0.32065      1.99933     5.26452    0.05681     7.32065
      C    7   -0.61106      1.99944     4.60361    0.00801     6.61106
      C    8   -0.53274      1.99936     4.51464    0.01874     6.53274
      S    9    0.55763      9.99871     5.40346    0.04019    15.44237
      C   10   -0.75065      1.99929     4.73298    0.01838     6.75065
     Fe   11   -0.07123     17.99030     8.03287    0.04806    26.07123
      C   12   -0.25141      1.99894     4.23458    0.01790     6.25141
      C   13   -0.24639      1.99891     4.22995    0.01753     6.24639
      C   14   -0.24972      1.99894     4.23353    0.01724     6.24972
      C   15   -0.24167      1.99890     4.22500    0.01777     6.24167
      N   16   -0.35901      1.99937     5.31107    0.04857     7.35901
      C   17    0.14094      1.99904     3.83892    0.02110     5.85906
      C   18   -0.03206      1.99876     4.01416    0.01914     6.03206
      C   19   -0.03117      1.99877     4.01543    0.01697     6.03117
      C   20    0.14183      1.99904     3.83761    0.02152     5.85817
      C   21   -0.63497      1.99940     4.62800    0.00757     6.63497
      C   22   -0.43314      1.99937     4.41953    0.01424     6.43314
      C   23   -0.49296      1.99929     4.47594    0.01773     6.49296
      C   24    0.76311      1.99953     3.20076    0.03660     5.23689
      O   25   -0.62888      1.99981     6.60650    0.02257     8.62888
      O   26   -0.63742      1.99958     6.60919    0.02866     8.63742
      N   27   -0.37793      1.99937     5.33179    0.04676     7.37793
      C   28    0.13868      1.99900     3.84107    0.02125     5.86132
      C   29   -0.03739      1.99881     4.02115    0.01743     6.03739
      C   30   -0.03629      1.99883     4.01804    0.01942     6.03629
      C   31    0.13528      1.99902     3.84439    0.02132     5.86472
      C   32   -0.63845      1.99940     4.63155    0.00750     6.63845
      C   33   -0.43239      1.99940     4.41807    0.01492     6.43239
      C   34   -0.60675      1.99945     4.60077    0.00653     6.60675
      N   35   -0.36325      1.99937     5.31550    0.04838     7.36325
      C   36    0.14228      1.99905     3.83767    0.02100     5.85772
      C   37   -0.02922      1.99875     4.01328    0.01720     6.02922
      C   38   -0.03897      1.99875     4.02086    0.01936     6.03897
      C   39    0.14505      1.99902     3.83451    0.02142     5.85495
      C   40   -0.63713      1.99940     4.63064    0.00709     6.63713
      C   41   -0.42054      1.99940     4.40820    0.01295     6.42054
      C   42   -0.59712      1.99945     4.59166    0.00601     6.59712
      N   43   -0.36579      1.99937     5.31987    0.04655     7.36579
      C   44    0.12580      1.99900     3.85329    0.02191     5.87420
      C   45   -0.03302      1.99878     4.01649    0.01775     6.03302
      C   46   -0.04257      1.99878     4.02408    0.01971     6.04257
      C   47    0.13567      1.99902     3.84471    0.02060     5.86433
      C   48   -0.63754      1.99940     4.63073    0.00740     6.63754
      C   49   -0.40880      1.99935     4.39530    0.01415     6.40880
      C   50   -0.51004      1.99929     4.49359    0.01717     6.51004
      C   51    0.77113      1.99948     3.19261    0.03678     5.22887
      O   52   -0.57563      1.99978     6.55220    0.02365     8.57563
      O   53   -0.68933      1.99958     6.65983    0.02993     8.68933
      H   54    0.22779      0.00000     0.77090    0.00132     0.77221
      H   55    0.21456      0.00000     0.78419    0.00124     0.78544
      H   56    0.23364      0.00000     0.76522    0.00114     0.76636
      H   57    0.41501      0.00000     0.58325    0.00174     0.58499
      H   58    0.22999      0.00000     0.76844    0.00158     0.77001
      H   59    0.21807      0.00000     0.78002    0.00191     0.78193
      H   60    0.21011      0.00000     0.78841    0.00148     0.78989
      H   61    0.20339      0.00000     0.79508    0.00153     0.79661
      H   62    0.22526      0.00000     0.77242    0.00233     0.77474
      H   63    0.23363      0.00000     0.76371    0.00266     0.76637
      H   64    0.21690      0.00000     0.78118    0.00192     0.78310
      H   65    0.24739      0.00000     0.75163    0.00098     0.75261
      H   66    0.22246      0.00000     0.77542    0.00212     0.77754
      H   67    0.21490      0.00000     0.78380    0.00130     0.78510
      H   68    0.20768      0.00000     0.78934    0.00299     0.79232
      H   69    0.21163      0.00000     0.78543    0.00295     0.78837
      H   70    0.20949      0.00000     0.78705    0.00347     0.79051
      H   71    0.20745      0.00000     0.78920    0.00336     0.79255
      H   72    0.21525      0.00000     0.78356    0.00119     0.78475
      H   73    0.22102      0.00000     0.77739    0.00160     0.77898
      H   74    0.21574      0.00000     0.78275    0.00152     0.78426
      H   75    0.21955      0.00000     0.77881    0.00164     0.78045
      H   76    0.22535      0.00000     0.77256    0.00209     0.77465
      H   77    0.24110      0.00000     0.75726    0.00164     0.75890
      H   78    0.23687      0.00000     0.76149    0.00165     0.76313
      H   79    0.21893      0.00000     0.77957    0.00150     0.78107
      H   80    0.21800      0.00000     0.78057    0.00144     0.78200
      H   81    0.21902      0.00000     0.77927    0.00171     0.78098
      H   82    0.21944      0.00000     0.77867    0.00189     0.78056
      H   83    0.21531      0.00000     0.78320    0.00149     0.78469
      H   84    0.20716      0.00000     0.79166    0.00117     0.79284
      H   85    0.20318      0.00000     0.79550    0.00132     0.79682
      H   86    0.21324      0.00000     0.78530    0.00146     0.78676
      H   87    0.21694      0.00000     0.78149    0.00157     0.78306
      H   88    0.21877      0.00000     0.77960    0.00163     0.78123
      H   89    0.21791      0.00000     0.78070    0.00139     0.78209
      H   90    0.21656      0.00000     0.78125    0.00219     0.78344
      H   91    0.21177      0.00000     0.78664    0.00158     0.78823
      H   92    0.20540      0.00000     0.79337    0.00123     0.79460
      H   93    0.19733      0.00000     0.80116    0.00151     0.80267
      H   94    0.20827      0.00000     0.79025    0.00148     0.79173
      H   95    0.20799      0.00000     0.79041    0.00160     0.79201
      H   96    0.21996      0.00000     0.77842    0.00162     0.78004
      H   97    0.22274      0.00000     0.77569    0.00157     0.77726
      H   98    0.21017      0.00000     0.78790    0.00193     0.78983
      H   99    0.22930      0.00000     0.76865    0.00205     0.77070
      H  100    0.24673      0.00000     0.75168    0.00159     0.75327
      H  101    0.21419      0.00000     0.78406    0.00175     0.78581
      H  102    0.51631      0.00000     0.48126    0.00243     0.48369
      H  103    0.51691      0.00000     0.48002    0.00307     0.48309
 =======================================================================
   * Total *    0.00000    129.94835   280.79794    1.25372   412.00000

 Normal termination of Gaussian 16 at Sun Sep  4 21:55:21 2022.
 Gaussian 16:  ES64L-G16RevA.03 25-Dec-2016

 ----------------------------------------------------------------------
 # PBE1PBE/def2TZVP empiricaldispersion=GD3BJ int=(grid=ultrafine) geom
 =check guess=read scrf=(smd,solvent=Chloroform)
 ----------------------------------------------------------------------

 --------------
 1ctj_II_S_solv
 --------------
 Structure from the checkpoint file:  "1ctj_II_S.chk"
 Charge =  0 Multiplicity = 1

                         Standard orientation:
 ---------------------------------------------------------------------
 Center     Atomic      Atomic             Coordinates (Angstroms)
 Number     Number       Type             X           Y           Z
 ---------------------------------------------------------------------
      1          6           0        2.732842   -1.806351    4.866406
      2          6           0        1.865983   -1.204270    3.823416
      3          7           0        0.532504   -0.966886    4.012910
      4          6           0        2.111084   -0.907844    2.528273
      5          6           0        0.027008   -0.539774    2.840893
      6          7           0        0.929825   -0.502531    1.922195
      7          6           0       -0.116658    3.046120   -2.627393
      8          6           0        0.947675    1.974047   -2.822824
      9         16           0        0.339272    0.330616   -2.357081
     10          6           0        1.365063   -0.723098   -3.391704
     11         26           0        0.758187   -0.072001   -0.071199
     12          6           0       -2.613036   -0.417539   -0.074510
     13          6           0        1.123113   -3.386568   -0.698599
     14          6           0        4.115420    0.384435   -0.434289
     15          6           0        0.450783    3.138183    0.957836
     16          7           0       -0.513403   -1.628607   -0.298750
     17          6           0       -1.882390   -1.569231   -0.234513
     18          6           0       -2.418047   -2.904268   -0.440699
     19          6           0       -1.381717   -3.725970   -0.633701
     20          6           0       -0.165795   -2.941041   -0.558905
     21          6           0       -1.418561   -5.226516   -0.917778
     22          6           0       -3.906093   -3.266769   -0.314700
     23          6           0       -4.380155   -3.256343    1.141591
     24          6           0       -5.893673   -3.201405    1.298829
     25          8           0       -6.332790   -3.563402    2.444099
     26          8           0       -6.575646   -2.782577    0.364046
     27          7           0        2.318344   -1.251409   -0.487365
     28          6           0        2.258856   -2.621892   -0.702296
     29          6           0        3.588049   -3.123950   -0.966370
     30          6           0        4.417690   -2.056341   -0.958302
     31          6           0        3.633096   -0.891520   -0.670524
     32          6           0        3.950299   -4.599677   -1.121154
     33          6           0        5.922820   -2.019324   -1.190498
     34          6           0        6.320954   -2.466809   -2.607612
     35          7           0        2.012715    1.458471    0.209569
     36          6           0        3.376325    1.440448    0.049702
     37          6           0        3.954638    2.708308    0.500422
     38          6           0        2.944580    3.447766    0.969842
     39          6           0        1.727827    2.690476    0.761084
     40          6           0        5.467311    3.020727    0.472745
     41          6           0        2.984404    4.768057    1.749747
     42          6           0        3.625533    5.935881    0.980419
     43          7           0       -0.755453    1.123677    0.302477
     44          6           0       -0.705369    2.464634    0.680910
     45          6           0       -2.036514    3.019017    0.715602
     46          6           0       -2.892932    2.041892    0.351511
     47          6           0       -2.106039    0.843079    0.177757
     48          6           0       -2.351093    4.500680    0.966999
     49          6           0       -4.398912    2.185330    0.127897
     50          6           0       -4.709694    2.652631   -1.319067
     51          6           0       -6.184974    2.874719   -1.522047
     52          8           0       -6.969615    1.912679   -1.452403
     53          8           0       -6.503094    4.037156   -1.839699
     54          1           0        3.430387   -1.074434    5.216587
     55          1           0        2.128023   -2.141943    5.682784
     56          1           0        3.265209   -2.636840    4.451950
     57          1           0        0.025647   -1.088438    4.866327
     58          1           0        3.064081   -0.974839    2.046394
     59          1           0       -0.996301   -0.265517    2.690821
     60          1           0        0.346116    4.010834   -2.619210
     61          1           0       -0.824059    2.996666   -3.428666
     62          1           0       -0.619659    2.883926   -1.697026
     63          1           0        1.737156    2.206715   -2.139095
     64          1           0        1.144452    1.934518   -3.873831
     65          1           0        1.295553   -1.734738   -3.050159
     66          1           0        2.382497   -0.396696   -3.335226
     67          1           0        1.027574   -0.664912   -4.405418
     68          1           0       -3.676628   -0.504542   -0.152633
     69          1           0        1.255329   -4.441737   -0.817077
     70          1           0        5.148722    0.565008   -0.645430
     71          1           0        0.345872    4.119091    1.372217
     72          1           0       -0.437189   -5.636136   -0.799370
     73          1           0       -1.755458   -5.391645   -1.919842
     74          1           0       -2.088842   -5.702786   -0.233095
     75          1           0       -3.996734   -4.278421   -0.651219
     76          1           0       -4.446478   -2.487589   -0.810444
     77          1           0       -4.010079   -2.344703    1.562134
     78          1           0       -4.078231   -4.196723    1.553208
     79          1           0        4.891163   -4.685186   -1.623512
     80          1           0        3.193920   -5.094432   -1.693873
     81          1           0        4.019585   -5.053212   -0.154507
     82          1           0        6.342858   -2.742533   -0.523089
     83          1           0        6.208642   -0.991057   -1.113865
     84          1           0        6.925558   -1.710915   -3.063657
     85          1           0        6.874951   -3.380454   -2.550680
     86          1           0        5.439249   -2.620279   -3.194079
     87          1           0        5.619725    4.063043    0.660484
     88          1           0        5.964015    2.446198    1.226470
     89          1           0        5.865910    2.769328   -0.487889
     90          1           0        3.621335    4.589643    2.590811
     91          1           0        1.962566    5.046547    1.902026
     92          1           0        3.301553    6.863158    1.404791
     93          1           0        4.691054    5.865512    1.048344
     94          1           0        3.329912    5.891216   -0.046963
     95          1           0       -3.374719    4.694367    0.722919
     96          1           0       -2.180337    4.731653    1.997724
     97          1           0       -1.717449    5.108563    0.355548
     98          1           0       -4.727262    2.970682    0.776209
     99          1           0       -4.813582    1.203650    0.224081
    100          1           0       -4.435744    1.842757   -1.962461
    101          1           0       -4.242686    3.608491   -1.433678
    102          1           0       -6.869299    4.631627   -1.180839
    103          1           0       -7.419879   -2.359755    0.537515
 ---------------------------------------------------------------------

 SCF Done:  E(RPBE1PBE) =  -3881.96143643     A.U. after   16 cycles

 The electronic state is 1-A.
 Alpha  occ. eigenvalues -- -256.30618 -89.01500 -30.07552 -25.90362 -25.90000
 Alpha  occ. eigenvalues --  -25.89971 -19.27020 -19.24809 -19.18543 -19.17268
 Alpha  occ. eigenvalues --  -14.42979 -14.38281 -14.36718 -14.36483 -14.36258
 Alpha  occ. eigenvalues --  -14.36099 -10.35216 -10.35015 -10.26538 -10.24780
 Alpha  occ. eigenvalues --  -10.23815 -10.23608 -10.23519 -10.23495 -10.23483
 Alpha  occ. eigenvalues --  -10.23465 -10.23381 -10.23341 -10.22737 -10.22440
 Alpha  occ. eigenvalues --  -10.22025 -10.21995 -10.21920 -10.21701 -10.21560
 Alpha  occ. eigenvalues --  -10.21401 -10.21401 -10.21359 -10.21132 -10.21130
 Alpha  occ. eigenvalues --  -10.21114 -10.21059 -10.20982 -10.20945 -10.20876
 Alpha  occ. eigenvalues --  -10.20860 -10.20797 -10.20712 -10.20699 -10.20676
 Alpha  occ. eigenvalues --  -10.20607 -10.20408 -10.20239 -10.20160 -10.19355
 Alpha  occ. eigenvalues --  -10.19197 -10.19156  -7.99288  -5.92937  -5.92641
 Alpha  occ. eigenvalues --   -5.92135  -3.42003  -2.17964  -2.17300  -2.17252
 Alpha  occ. eigenvalues --   -1.17779  -1.16372  -1.05301  -1.03385  -1.01115
 Alpha  occ. eigenvalues --   -0.97069  -0.96131  -0.95937  -0.94996  -0.90379
 Alpha  occ. eigenvalues --   -0.83407  -0.82970  -0.82890  -0.82626  -0.81830
 Alpha  occ. eigenvalues --   -0.81558  -0.80477  -0.80250  -0.80014  -0.78609
 Alpha  occ. eigenvalues --   -0.78108  -0.76724  -0.76076  -0.75844  -0.75014
 Alpha  occ. eigenvalues --   -0.73449  -0.72232  -0.71525  -0.71413  -0.70735
 Alpha  occ. eigenvalues --   -0.69453  -0.69289  -0.68605  -0.66163  -0.65676
 Alpha  occ. eigenvalues --   -0.65306  -0.64325  -0.64099  -0.63274  -0.63039
 Alpha  occ. eigenvalues --   -0.62826  -0.60787  -0.59122  -0.58829  -0.56990
 Alpha  occ. eigenvalues --   -0.55459  -0.55206  -0.54223  -0.54150  -0.52951
 Alpha  occ. eigenvalues --   -0.52366  -0.51915  -0.51504  -0.51351  -0.50641
 Alpha  occ. eigenvalues --   -0.50279  -0.49889  -0.49276  -0.49181  -0.48561
 Alpha  occ. eigenvalues --   -0.48043  -0.47697  -0.47672  -0.47031  -0.46937
 Alpha  occ. eigenvalues --   -0.46637  -0.46605  -0.46056  -0.45784  -0.45112
 Alpha  occ. eigenvalues --   -0.44456  -0.44277  -0.43971  -0.43757  -0.43325
 Alpha  occ. eigenvalues --   -0.43207  -0.43051  -0.42694  -0.42462  -0.42415
 Alpha  occ. eigenvalues --   -0.42367  -0.42069  -0.41843  -0.41742  -0.41393
 Alpha  occ. eigenvalues --   -0.41168  -0.40887  -0.40717  -0.40378  -0.40140
 Alpha  occ. eigenvalues --   -0.39800  -0.39543  -0.39200  -0.39037  -0.38916
 Alpha  occ. eigenvalues --   -0.38893  -0.38315  -0.38246  -0.37836  -0.37767
 Alpha  occ. eigenvalues --   -0.37442  -0.37033  -0.36939  -0.36735  -0.36642
 Alpha  occ. eigenvalues --   -0.36524  -0.36362  -0.36055  -0.35447  -0.35437
 Alpha  occ. eigenvalues --   -0.35133  -0.34903  -0.34658  -0.34278  -0.34120
 Alpha  occ. eigenvalues --   -0.33023  -0.32955  -0.32755  -0.32617  -0.32211
 Alpha  occ. eigenvalues --   -0.31785  -0.31641  -0.31106  -0.31013  -0.29675
 Alpha  occ. eigenvalues --   -0.28850  -0.28343  -0.27799  -0.27496  -0.27251
 Alpha  occ. eigenvalues --   -0.25554  -0.24670  -0.24032  -0.23550  -0.23237
 Alpha  occ. eigenvalues --   -0.22621  -0.19730  -0.18448  -0.18353  -0.18157
 Alpha  occ. eigenvalues --   -0.17981
 Alpha virt. eigenvalues --   -0.06433  -0.06044  -0.01114   0.00014   0.00891
 Alpha virt. eigenvalues --    0.02651   0.03269   0.03663   0.03821   0.04114
 Alpha virt. eigenvalues --    0.04355   0.04948   0.05325   0.05570   0.06027

 Mulliken charges:
               1
     1  C   -0.391692
     2  C    0.133170
     3  N   -0.219520
     4  C   -0.234425
     5  C   -0.004186
     6  N    0.040960
     7  C   -0.376948
     8  C   -0.153785
     9  S   -0.003678
    10  C   -0.390075
    11  Fe  -0.478746
    12  C   -0.551013
    13  C   -0.555579
    14  C   -0.509140
    15  C   -0.529633
    16  N    0.037728
    17  C    0.239918
    18  C   -0.017522
    19  C   -0.092296
    20  C    0.277907
    21  C   -0.450772
    22  C   -0.318017
    23  C   -0.187729
    24  C    0.278085
    25  O   -0.460214
    26  O   -0.305140
    27  N    0.038738
    28  C    0.173930
    29  C   -0.064443
    30  C   -0.049563
    31  C    0.179823
    32  C   -0.437325
    33  C   -0.189068
    34  C   -0.416984
    35  N   -0.012270
    36  C    0.180436
    37  C   -0.080905
    38  C   -0.107875
    39  C    0.364937
    40  C   -0.425277
    41  C   -0.176765
    42  C   -0.407420
    43  N    0.062252
    44  C    0.106114
    45  C   -0.059580
    46  C    0.034692
    47  C    0.264169
    48  C   -0.422448
    49  C   -0.400342
    50  C   -0.152389
    51  C    0.301614
    52  O   -0.397012
    53  O   -0.367118
    54  H    0.155107
    55  H    0.142811
    56  H    0.158604
    57  H    0.274073
    58  H    0.165608
    59  H    0.181363
    60  H    0.126717
    61  H    0.125089
    62  H    0.130189
    63  H    0.133507
    64  H    0.143188
    65  H    0.168310
    66  H    0.148050
    67  H    0.165275
    68  H    0.146301
    69  H    0.132565
    70  H    0.137887
    71  H    0.134057
    72  H    0.143931
    73  H    0.154791
    74  H    0.146196
    75  H    0.141441
    76  H    0.130550
    77  H    0.150185
    78  H    0.138490
    79  H    0.152904
    80  H    0.145098
    81  H    0.150409
    82  H    0.132136
    83  H    0.113388
    84  H    0.133974
    85  H    0.127689
    86  H    0.143919
    87  H    0.136708
    88  H    0.153365
    89  H    0.147933
    90  H    0.128914
    91  H    0.111303
    92  H    0.133158
    93  H    0.125032
    94  H    0.132786
    95  H    0.135096
    96  H    0.152663
    97  H    0.154081
    98  H    0.142834
    99  H    0.122916
   100  H    0.141591
   101  H    0.117973
   102  H    0.390270
   103  H    0.382000
 Sum of Mulliken charges =  -0.00000

 Dipole moment (field-independent basis, Debye):
    X=              4.1672    Y=              4.1946    Z=              2.8826  Tot=              6.5779
 Quadrupole moment (field-independent basis, Debye-Ang):
   XX=           -329.3035   YY=           -293.5091   ZZ=           -306.0046
   XY=            -35.2512   XZ=              7.1393   YZ=              9.7959

 Normal termination of Gaussian 16 at Mon Sep  5 04:16:41 2022.
