 Gaussian 16, Revision A.03,

 ----------------------------------------------------------------------
 # PBE1PBE/def2TZVP empiricaldispersion=GD3BJ int=(grid=ultrafine) geom
 =check pop=nbo
 ----------------------------------------------------------------------

 ----------
 1ctj_III_H
 ----------
 Structure from the checkpoint file:  "1ctj_III_H.chk"
 Charge =  1 Multiplicity = 6

 SCF Done:  E(UPBE1PBE) =  -3881.70037557     A.U. after   26 cycles

 Summary of Natural Population Analysis:

                                       Natural Population
                Natural  -----------------------------------------------
    Atom  No    Charge         Core      Valence    Rydberg      Total
 -----------------------------------------------------------------------
      C    1   -0.32158      0.99969     2.31579    0.00609     3.32158
      C    2    0.06530      0.99953     1.92643    0.00874     2.93470
      N    3   -0.23422      0.99969     2.72511    0.00942     3.73422
      C    4   -0.03737      0.99941     2.02917    0.00879     3.03737
      C    5    0.11479      0.99961     1.87474    0.01086     2.88521
      N    6   -0.15778      0.99968     2.63394    0.02415     3.65778
      C    7   -0.30451      0.99972     2.29871    0.00608     3.30451
      C    8   -0.25948      0.99968     2.25021    0.00959     3.25948
      S    9    0.34237      4.99905     2.63576    0.02282     7.65763
      C   10   -0.36802      0.99964     2.35974    0.00864     3.36802
     Fe   11    2.27430      8.99543     1.67996    0.05032    10.72570
      C   12   -0.11630      0.99934     2.10801    0.00894     3.11630
      C   13   -0.11918      0.99945     2.11186    0.00787     3.11918
      C   14   -0.11615      0.99934     2.10807    0.00873     3.11615
      C   15   -0.12126      0.99945     2.11372    0.00809     3.12126
      N   16   -0.18287      0.99969     2.66134    0.02184     3.68287
      C   17    0.08992      0.99950     1.89991    0.01067     2.91008
      C   18    0.00341      0.99938     1.98791    0.00930     2.99659
      C   19    0.01169      0.99922     1.97841    0.01067     2.98831
      C   20    0.08931      0.99950     1.90027    0.01091     2.91069
      C   21   -0.31905      0.99970     2.31570    0.00365     3.31905
      C   22   -0.21752      0.99968     2.21091    0.00693     3.21752
      C   23   -0.24474      0.99964     2.23639    0.00871     3.24474
      C   24    0.37915      0.99977     1.60294    0.01814     2.62085
      O   25   -0.30498      0.99991     3.29378    0.01129     4.30498
      O   26   -0.31903      0.99979     3.30501    0.01423     4.31903
      N   27   -0.19259      0.99970     2.67164    0.02126     3.69259
      C   28    0.08999      0.99948     1.90050    0.01002     2.91001
      C   29    0.00537      0.99940     1.98706    0.00816     2.99463
      C   30    0.00449      0.99941     1.98693    0.00917     2.99551
      C   31    0.08704      0.99950     1.90320    0.01027     2.91296
      C   32   -0.32063      0.99970     2.31730    0.00363     3.32063
      C   33   -0.21770      0.99969     2.21096    0.00704     3.21770
      C   34   -0.30266      0.99972     2.29900    0.00394     3.30266
      N   35   -0.18743      0.99969     2.66709    0.02064     3.68743
      C   36    0.08734      0.99951     1.90222    0.01092     2.91266
      C   37    0.01402      0.99922     1.97623    0.01053     2.98598
      C   38   -0.00164      0.99938     1.99232    0.00994     3.00164
      C   39    0.09597      0.99949     1.89440    0.01014     2.90403
      C   40   -0.32058      0.99970     2.31742    0.00346     3.32058
      C   41   -0.21268      0.99970     2.20642    0.00657     3.21268
      C   42   -0.29801      0.99972     2.29477    0.00352     3.29801
      N   43   -0.19200      0.99969     2.67169    0.02062     3.69200
      C   44    0.08834      0.99948     1.90177    0.01041     2.91166
      C   45    0.00537      0.99939     1.98698    0.00826     2.99463
      C   46    0.00247      0.99939     1.98885    0.00929     2.99753
      C   47    0.08950      0.99949     1.90069    0.01032     2.91050
      C   48   -0.32005      0.99969     2.31669    0.00367     3.32005
      C   49   -0.20595      0.99967     2.19939    0.00689     3.20595
      C   50   -0.25296      0.99964     2.24493    0.00839     3.25296
      C   51    0.38453      0.99974     1.59753    0.01819     2.61547
      O   52   -0.28136      0.99989     3.26963    0.01184     4.28136
      O   53   -0.34185      0.99979     3.32706    0.01500     4.34185
      H   54    0.11920      0.00000     0.38024    0.00056     0.38080
      H   55    0.11278      0.00000     0.38675    0.00047     0.38722
      H   56    0.12043      0.00000     0.37907    0.00050     0.37957
      H   57    0.21416      0.00000     0.28503    0.00081     0.28584
      H   58    0.11768      0.00000     0.38158    0.00074     0.38232
      H   59    0.11215      0.00000     0.38705    0.00079     0.38785
      H   60    0.11127      0.00000     0.38818    0.00055     0.38873
      H   61    0.10781      0.00000     0.39160    0.00059     0.39219
      H   62    0.10810      0.00000     0.39095    0.00095     0.39190
      H   63    0.11681      0.00000     0.38185    0.00134     0.38319
      H   64    0.11836      0.00000     0.38081    0.00083     0.38164
      H   65    0.12391      0.00000     0.37553    0.00056     0.37609
      H   66    0.11468      0.00000     0.38442    0.00090     0.38532
      H   67    0.11897      0.00000     0.38046    0.00057     0.38103
      H   68    0.11304      0.00000     0.38555    0.00141     0.38696
      H   69    0.11484      0.00000     0.38377    0.00139     0.38516
      H   70    0.11381      0.00000     0.38480    0.00139     0.38619
      H   71    0.11326      0.00000     0.38547    0.00127     0.38674
      H   72    0.10948      0.00000     0.38997    0.00055     0.39052
      H   73    0.11708      0.00000     0.38223    0.00069     0.38292
      H   74    0.11415      0.00000     0.38517    0.00068     0.38585
      H   75    0.11462      0.00000     0.38461    0.00077     0.38538
      H   76    0.11549      0.00000     0.38351    0.00100     0.38451
      H   77    0.11664      0.00000     0.38260    0.00076     0.38336
      H   78    0.12115      0.00000     0.37807    0.00078     0.37885
      H   79    0.11550      0.00000     0.38381    0.00069     0.38450
      H   80    0.11262      0.00000     0.38674    0.00064     0.38738
      H   81    0.11584      0.00000     0.38344    0.00071     0.38416
      H   82    0.11586      0.00000     0.38333    0.00081     0.38414
      H   83    0.10819      0.00000     0.39105    0.00075     0.39181
      H   84    0.10850      0.00000     0.39092    0.00058     0.39150
      H   85    0.10680      0.00000     0.39259    0.00061     0.39320
      H   86    0.10533      0.00000     0.39399    0.00068     0.39467
      H   87    0.11432      0.00000     0.38492    0.00075     0.38568
      H   88    0.11475      0.00000     0.38455    0.00071     0.38525
      H   89    0.11279      0.00000     0.38658    0.00063     0.38721
      H   90    0.11581      0.00000     0.38335    0.00085     0.38419
      H   91    0.10627      0.00000     0.39295    0.00078     0.39373
      H   92    0.10897      0.00000     0.39044    0.00059     0.39103
      H   93    0.10157      0.00000     0.39770    0.00073     0.39843
      H   94    0.10417      0.00000     0.39512    0.00071     0.39583
      H   95    0.10982      0.00000     0.38944    0.00074     0.39018
      H   96    0.11597      0.00000     0.38333    0.00070     0.38403
      H   97    0.11522      0.00000     0.38410    0.00068     0.38478
      H   98    0.11010      0.00000     0.38898    0.00092     0.38990
      H   99    0.11642      0.00000     0.38258    0.00100     0.38358
      H  100    0.12225      0.00000     0.37699    0.00076     0.37775
      H  101    0.10811      0.00000     0.39103    0.00086     0.39189
      H  102    0.26073      0.00000     0.23816    0.00112     0.23927
      H  103    0.26171      0.00000     0.23690    0.00139     0.23829
 =======================================================================
   * Total *    3.00005     64.97337   137.38873    0.63784   202.99995

 Normal termination of Gaussian 16 at Sun Sep 11 22:59:44 2022.
 Gaussian 16:  ES64L-G16RevA.03 25-Dec-2016

 ----------------------------------------------------------------------
 # PBE1PBE/def2TZVP empiricaldispersion=GD3BJ int=(grid=ultrafine) geom
 =check guess=read scrf=(smd,solvent=Chloroform)
 ----------------------------------------------------------------------

 ---------------
 1ctj_III_H_solv
 ---------------
 Structure from the checkpoint file:  "1ctj_III_H.chk"
 Charge =  1 Multiplicity = 6

                         Standard orientation:
 ---------------------------------------------------------------------
 Center     Atomic      Atomic             Coordinates (Angstroms)
 Number     Number       Type             X           Y           Z
 ---------------------------------------------------------------------
      1          6           0        2.732842   -1.806351    4.866406
      2          6           0        1.865983   -1.204270    3.823416
      3          7           0        0.532504   -0.966886    4.012910
      4          6           0        2.111084   -0.907844    2.528273
      5          6           0        0.027008   -0.539774    2.840893
      6          7           0        0.929825   -0.502531    1.922195
      7          6           0       -0.116658    3.046120   -2.627393
      8          6           0        0.947675    1.974047   -2.822824
      9         16           0        0.339272    0.330616   -2.357081
     10          6           0        1.365063   -0.723098   -3.391704
     11         26           0        0.758187   -0.072001   -0.071199
     12          6           0       -2.613036   -0.417539   -0.074510
     13          6           0        1.123113   -3.386568   -0.698599
     14          6           0        4.115420    0.384435   -0.434289
     15          6           0        0.450783    3.138183    0.957836
     16          7           0       -0.513403   -1.628607   -0.298750
     17          6           0       -1.882390   -1.569231   -0.234513
     18          6           0       -2.418047   -2.904268   -0.440699
     19          6           0       -1.381717   -3.725970   -0.633701
     20          6           0       -0.165795   -2.941041   -0.558905
     21          6           0       -1.418561   -5.226516   -0.917778
     22          6           0       -3.906093   -3.266769   -0.314700
     23          6           0       -4.380155   -3.256343    1.141591
     24          6           0       -5.893673   -3.201405    1.298829
     25          8           0       -6.332790   -3.563402    2.444099
     26          8           0       -6.575646   -2.782577    0.364046
     27          7           0        2.318344   -1.251409   -0.487365
     28          6           0        2.258856   -2.621892   -0.702296
     29          6           0        3.588049   -3.123950   -0.966370
     30          6           0        4.417690   -2.056341   -0.958302
     31          6           0        3.633096   -0.891520   -0.670524
     32          6           0        3.950299   -4.599677   -1.121154
     33          6           0        5.922820   -2.019324   -1.190498
     34          6           0        6.320954   -2.466809   -2.607612
     35          7           0        2.012715    1.458471    0.209569
     36          6           0        3.376325    1.440448    0.049702
     37          6           0        3.954638    2.708308    0.500422
     38          6           0        2.944580    3.447766    0.969842
     39          6           0        1.727827    2.690476    0.761084
     40          6           0        5.467311    3.020727    0.472745
     41          6           0        2.984404    4.768057    1.749747
     42          6           0        3.625533    5.935881    0.980419
     43          7           0       -0.755453    1.123677    0.302477
     44          6           0       -0.705369    2.464634    0.680910
     45          6           0       -2.036514    3.019017    0.715602
     46          6           0       -2.892932    2.041892    0.351511
     47          6           0       -2.106039    0.843079    0.177757
     48          6           0       -2.351093    4.500680    0.966999
     49          6           0       -4.398912    2.185330    0.127897
     50          6           0       -4.709694    2.652631   -1.319067
     51          6           0       -6.184974    2.874719   -1.522047
     52          8           0       -6.969615    1.912679   -1.452403
     53          8           0       -6.503094    4.037156   -1.839699
     54          1           0        3.430387   -1.074434    5.216587
     55          1           0        2.128023   -2.141943    5.682784
     56          1           0        3.265209   -2.636840    4.451950
     57          1           0        0.025647   -1.088438    4.866327
     58          1           0        3.064081   -0.974839    2.046394
     59          1           0       -0.996301   -0.265517    2.690821
     60          1           0        0.346116    4.010834   -2.619210
     61          1           0       -0.824059    2.996666   -3.428666
     62          1           0       -0.619659    2.883926   -1.697026
     63          1           0        1.737156    2.206715   -2.139095
     64          1           0        1.144452    1.934518   -3.873831
     65          1           0        1.295553   -1.734738   -3.050159
     66          1           0        2.382497   -0.396696   -3.335226
     67          1           0        1.027574   -0.664912   -4.405418
     68          1           0       -3.676628   -0.504542   -0.152633
     69          1           0        1.255329   -4.441737   -0.817077
     70          1           0        5.148722    0.565008   -0.645430
     71          1           0        0.345872    4.119091    1.372217
     72          1           0       -0.437189   -5.636136   -0.799370
     73          1           0       -1.755458   -5.391645   -1.919842
     74          1           0       -2.088842   -5.702786   -0.233095
     75          1           0       -3.996734   -4.278421   -0.651219
     76          1           0       -4.446478   -2.487589   -0.810444
     77          1           0       -4.010079   -2.344703    1.562134
     78          1           0       -4.078231   -4.196723    1.553208
     79          1           0        4.891163   -4.685186   -1.623512
     80          1           0        3.193920   -5.094432   -1.693873
     81          1           0        4.019585   -5.053212   -0.154507
     82          1           0        6.342858   -2.742533   -0.523089
     83          1           0        6.208642   -0.991057   -1.113865
     84          1           0        6.925558   -1.710915   -3.063657
     85          1           0        6.874951   -3.380454   -2.550680
     86          1           0        5.439249   -2.620279   -3.194079
     87          1           0        5.619725    4.063043    0.660484
     88          1           0        5.964015    2.446198    1.226470
     89          1           0        5.865910    2.769328   -0.487889
     90          1           0        3.621335    4.589643    2.590811
     91          1           0        1.962566    5.046547    1.902026
     92          1           0        3.301553    6.863158    1.404791
     93          1           0        4.691054    5.865512    1.048344
     94          1           0        3.329912    5.891216   -0.046963
     95          1           0       -3.374719    4.694367    0.722919
     96          1           0       -2.180337    4.731653    1.997724
     97          1           0       -1.717449    5.108563    0.355548
     98          1           0       -4.727262    2.970682    0.776209
     99          1           0       -4.813582    1.203650    0.224081
    100          1           0       -4.435744    1.842757   -1.962461
    101          1           0       -4.242686    3.608491   -1.433678
    102          1           0       -6.869299    4.631627   -1.180839
    103          1           0       -7.419879   -2.359755    0.537515
 ---------------------------------------------------------------------

 SCF Done:  E(UPBE1PBE) =  -3881.80172759     A.U. after   16 cycles

 Alpha virt. eigenvalues --    1.03791   1.04109   1.04311   1.04632   1.04811
 Alpha virt. eigenvalues --    1.05057   1.05408   1.05746   1.05838   1.06042
 Alpha virt. eigenvalues --    1.06339   1.06600   1.06759   1.07517   1.07722

  Beta  occ. eigenvalues -- -256.46324 -89.04914 -30.19556 -26.02791 -26.02720
  Beta  occ. eigenvalues --  -26.02687 -19.28445 -19.26170 -19.20028 -19.18725
  Beta  occ. eigenvalues --  -14.45991 -14.41258 -14.40208 -14.39960 -14.39722
  Beta  occ. eigenvalues --  -14.39653 -10.36762 -10.36577 -10.30107 -10.28209
  Beta  occ. eigenvalues --  -10.27881 -10.27872 -10.27751 -10.27740 -10.27737
  Beta  occ. eigenvalues --  -10.27680 -10.27674 -10.27656 -10.25953 -10.25219
  Beta  occ. eigenvalues --  -10.25143 -10.25125 -10.25058 -10.24922 -10.24732
  Beta  occ. eigenvalues --  -10.24731 -10.24659 -10.24591 -10.24480 -10.24475
  Beta  occ. eigenvalues --  -10.24406 -10.24351 -10.24292 -10.24178 -10.23952
  Beta  occ. eigenvalues --  -10.23671 -10.23637 -10.23407 -10.23107 -10.23070
  Beta  occ. eigenvalues --  -10.23011 -10.22673 -10.22547 -10.22426 -10.21692
  Beta  occ. eigenvalues --  -10.21145 -10.21015  -8.02915  -5.96546  -5.96237
  Beta  occ. eigenvalues --   -5.95715  -3.48804  -2.23377  -2.23071  -2.23053
  Beta  occ. eigenvalues --   -1.19215  -1.17761  -1.08445  -1.04846  -1.02558
  Beta  occ. eigenvalues --   -1.01211  -1.00166  -1.00043  -0.99031  -0.93673
  Beta  occ. eigenvalues --   -0.86965  -0.86316  -0.85780  -0.85521  -0.84920
  Beta  occ. eigenvalues --   -0.84603  -0.84000  -0.83854  -0.82650  -0.81356
  Beta  occ. eigenvalues --   -0.80886  -0.79410  -0.78851  -0.78740  -0.78612
  Beta  occ. eigenvalues --   -0.76331  -0.74698  -0.74162  -0.74104  -0.73531
  Beta  occ. eigenvalues --   -0.71920  -0.71558  -0.71473  -0.69199  -0.68877
  Beta  occ. eigenvalues --   -0.68555  -0.66754  -0.66423  -0.66365  -0.65634
  Beta  occ. eigenvalues --   -0.65407  -0.63769  -0.62431  -0.62351  -0.60771
  Beta  occ. eigenvalues --   -0.58569  -0.58333  -0.57562  -0.57523  -0.56385
  Beta  occ. eigenvalues --   -0.55056  -0.54751  -0.54451  -0.53749  -0.52927
  Beta  occ. eigenvalues --   -0.52762  -0.52203  -0.51642  -0.51354  -0.51090
  Beta  occ. eigenvalues --   -0.50862  -0.50784  -0.50724  -0.50051  -0.49818
  Beta  occ. eigenvalues --   -0.49499  -0.49038  -0.48461  -0.48252  -0.47779
  Beta  occ. eigenvalues --   -0.47518  -0.47211  -0.47001  -0.46686  -0.46328
  Beta  occ. eigenvalues --   -0.46114  -0.45845  -0.45425  -0.45357  -0.45140
  Beta  occ. eigenvalues --   -0.44925  -0.44729  -0.44607  -0.44152  -0.43930
  Beta  occ. eigenvalues --   -0.43818  -0.43661  -0.43371  -0.43100  -0.42937
  Beta  occ. eigenvalues --   -0.42646  -0.42430  -0.42184  -0.41823  -0.41732
  Beta  occ. eigenvalues --   -0.41522  -0.41151  -0.41039  -0.40720  -0.40480
  Beta  occ. eigenvalues --   -0.40292  -0.39970  -0.39639  -0.39520  -0.39334
  Beta  occ. eigenvalues --   -0.39097  -0.38838  -0.38674  -0.38521  -0.38348
  Beta  occ. eigenvalues --   -0.38104  -0.37778  -0.37681  -0.37087  -0.36766
  Beta  occ. eigenvalues --   -0.36216  -0.35924  -0.35809  -0.35584  -0.35439
  Beta  occ. eigenvalues --   -0.35172  -0.34804  -0.34503  -0.34286  -0.33254
  Beta  occ. eigenvalues --   -0.32819  -0.31167  -0.30968  -0.29874  -0.29300
  Beta  occ. eigenvalues --   -0.29022  -0.27517  -0.26993  -0.26607  -0.26359
  Beta  occ. eigenvalues --   -0.25831  -0.22324  -0.21841
  Beta virt. eigenvalues --   -0.12653  -0.12477  -0.10341  -0.08419  -0.08139
  Beta virt. eigenvalues --   -0.04616  -0.03421  -0.02385  -0.01979  -0.00651
  Beta virt. eigenvalues --    0.00669   0.01081   0.01268   0.01905   0.02078

 Mulliken charges and spin densities:
               1          2
     1  C   -0.386196   0.000767
     2  C    0.130715   0.005158
     3  N   -0.202504   0.004993
     4  C   -0.219389   0.002134
     5  C    0.013090   0.007253
     6  N    0.034699   0.052358
     7  C   -0.374214  -0.001542
     8  C   -0.153548   0.002870
     9  S   -0.015467   0.113501
    10  C   -0.386879   0.000194
    11  Fe  -0.272671   4.360124
    12  C   -0.548056  -0.021299
    13  C   -0.555933  -0.019061
    14  C   -0.512660  -0.020247
    15  C   -0.533618  -0.025163
    16  N    0.013861   0.046241
    17  C    0.275570   0.023152
    18  C    0.004025   0.015342
    19  C   -0.087175   0.017442
    20  C    0.321990   0.020449
    21  C   -0.440289   0.000568
    22  C   -0.309766  -0.000274
    23  C   -0.190748   0.000594
    24  C    0.278908   0.000036
    25  O   -0.454467   0.000113
    26  O   -0.305713   0.000005
    27  N   -0.015458   0.049633
    28  C    0.216911   0.019635
    29  C   -0.051777   0.020734
    30  C   -0.037880   0.017831
    31  C    0.228300   0.022651
    32  C   -0.428262  -0.000201
    33  C   -0.174456   0.000272
    34  C   -0.420507   0.000692
    35  N   -0.051558   0.043670
    36  C    0.230700   0.017044
    37  C   -0.066124   0.018735
    38  C   -0.097200   0.015533
    39  C    0.406443   0.026883
    40  C   -0.415219  -0.000081
    41  C   -0.166070   0.000066
    42  C   -0.410611   0.000522
    43  N    0.023486   0.048460
    44  C    0.146347   0.022523
    45  C   -0.041444   0.019748
    46  C    0.051003   0.018591
    47  C    0.302792   0.025849
    48  C   -0.412482   0.000068
    49  C   -0.391411  -0.000619
    50  C   -0.156229   0.001045
    51  C    0.304061   0.000135
    52  O   -0.393037   0.000164
    53  O   -0.365474   0.000008
    54  H    0.160506   0.000113
    55  H    0.149365   0.000173
    56  H    0.161965   0.000073
    57  H    0.283857   0.001259
    58  H    0.176146   0.000783
    59  H    0.192080   0.000674
    60  H    0.138007   0.000315
    61  H    0.137117   0.000479
    62  H    0.123856   0.000587
    63  H    0.139295   0.002496
    64  H    0.161609   0.002121
    65  H    0.177126   0.000295
    66  H    0.159515   0.001105
    67  H    0.181653   0.003612
    68  H    0.160988   0.000448
    69  H    0.149265   0.000282
    70  H    0.153745   0.000610
    71  H    0.150554   0.000667
    72  H    0.149114   0.000039
    73  H    0.163338   0.000675
    74  H    0.155070   0.000474
    75  H    0.150582   0.000399
    76  H    0.135983   0.000351
    77  H    0.148699   0.000026
    78  H    0.143876  -0.000001
    79  H    0.162572   0.000391
    80  H    0.151787   0.000358
    81  H    0.159311   0.000907
    82  H    0.140148   0.000519
    83  H    0.117859  -0.000012
    84  H    0.140315   0.000142
    85  H    0.135098   0.000024
    86  H    0.144943   0.000074
    87  H    0.145552   0.000322
    88  H    0.161060   0.000673
    89  H    0.154112   0.000339
    90  H    0.136762   0.000585
    91  H    0.115210   0.000013
    92  H    0.140733   0.000158
    93  H    0.130823  -0.000032
    94  H    0.134297   0.000071
    95  H    0.144802   0.000408
    96  H    0.160489   0.000670
    97  H    0.160802   0.000450
    98  H    0.150901   0.000474
    99  H    0.128374   0.000162
   100  H    0.142512  -0.000024
   101  H    0.121766  -0.000051
   102  H    0.392868   0.000022
   103  H    0.385183   0.000004
 Sum of Mulliken charges =   1.00000   5.00000

 Dipole moment (field-independent basis, Debye):
    X=              7.8054    Y=              3.9783    Z=              2.5731  Tot=              9.1308
 Quadrupole moment (field-independent basis, Debye-Ang):
   XX=           -282.0224   YY=           -252.8204   ZZ=           -286.5967
   XY=            -36.1930   XZ=              5.4758   YZ=             13.7747

 Normal termination of Gaussian 16 at Mon Sep 12 14:17:17 2022.
