 Gaussian 16, Revision A.03,

 ----------------------------------------------------------------------
 # PBE1PBE/def2TZVP empiricaldispersion=GD3BJ int=(grid=ultrafine) geom
 =check guess=read pop=nbo
 ----------------------------------------------------------------------

 -------------
 1es1_II_S_nbo
 -------------
 Structure from the checkpoint file:  "1es1_II_S.chk"
 Charge =  0 Multiplicity = 1

 SCF Done:  E(RPBE1PBE) =  -3627.49583184     A.U. after    1 cycles

 Summary of Natural Population Analysis:

                                       Natural Population
                Natural  -----------------------------------------------
    Atom  No    Charge         Core      Valence    Rydberg      Total
 -----------------------------------------------------------------------
      C    1   -0.63673      1.99939     4.63113    0.00621     6.63673
      C    2    0.09175      1.99908     3.89008    0.01908     5.90825
      N    3   -0.49184      1.99937     5.47248    0.01999     7.49184
      C    4   -0.06644      1.99890     4.04848    0.01907     6.06644
      C    5    0.19427      1.99936     3.78722    0.01915     5.80573
      N    6   -0.33725      1.99940     5.28857    0.04928     7.33725
      C    7   -0.63740      1.99938     4.63138    0.00663     6.63740
      C    8    0.09842      1.99908     3.88337    0.01913     5.90158
      N    9   -0.48904      1.99937     5.46963    0.02003     7.48904
      C   10   -0.06523      1.99889     4.04731    0.01904     6.06523
      C   11    0.19284      1.99934     3.78845    0.01936     5.80716
      N   12   -0.33246      1.99938     5.28312    0.04995     7.33246
      C   13   -0.23567      1.99894     4.22001    0.01671     6.23567
      C   14   -0.25516      1.99894     4.23935    0.01687     6.25516
      C   15   -0.21771      1.99897     4.20183    0.01691     6.21771
      C   16   -0.27410      1.99901     4.25895    0.01613     6.27410
      C   17    0.14973      1.99900     3.83126    0.02001     5.85027
      C   18   -0.04811      1.99880     4.02969    0.01962     6.04811
      C   19   -0.02650      1.99886     4.00999    0.01766     6.02650
      C   20    0.13289      1.99900     3.84761    0.02050     5.86711
      C   21   -0.63968      1.99939     4.63290    0.00738     6.63968
      C   22   -0.42049      1.99934     4.40659    0.01455     6.42049
      C   23   -0.49487      1.99927     4.47826    0.01734     6.49487
      C   24    0.77070      1.99953     3.19224    0.03752     5.22930
      O   25   -0.64964      1.99961     6.62306    0.02697     8.64964
      O   26   -0.62653      1.99978     6.60192    0.02483     8.62653
      C   27    0.14359      1.99904     3.83700    0.02036     5.85641
      C   28    0.00004      1.99886     3.98465    0.01645     5.99996
      C   29   -0.12449      1.99884     4.10283    0.02282     6.12449
      C   30    0.16427      1.99903     3.81645    0.02025     5.83573
      C   31   -0.63407      1.99940     4.62736    0.00732     6.63407
      C   32   -0.19124      1.99918     4.17213    0.01993     6.19124
      C   33   -0.37417      1.99936     4.36411    0.01071     6.37417
      C   34    0.12118      1.99900     3.85807    0.02176     5.87882
      C   35    0.08304      1.99855     3.89498    0.02342     5.91696
      C   36   -0.18612      1.99882     4.16694    0.02035     6.18612
      C   37    0.16389      1.99914     3.81660    0.02038     5.83611
      C   38   -1.26187      1.99914     5.20115    0.06158     7.26187
      C   39   -0.18708      1.99922     4.17052    0.01734     6.18708
      C   40   -0.42708      1.99940     4.41375    0.01393     6.42708
      C   41    0.13640      1.99908     3.84332    0.02120     5.86360
      C   42   -0.03905      1.99886     4.02332    0.01688     6.03905
      C   43   -0.03920      1.99879     4.02114    0.01927     6.03920
      C   44    0.14553      1.99896     3.83507    0.02045     5.85447
      C   45   -0.63576      1.99940     4.62850    0.00786     6.63576
      C   46   -0.41513      1.99936     4.39906    0.01671     6.41513
      C   47   -0.52120      1.99928     4.50448    0.01744     6.52120
      C   48    0.76313      1.99950     3.20224    0.03512     5.23687
      O   49   -0.65796      1.99959     6.62777    0.03059     8.65796
      O   50   -0.57453      1.99979     6.55112    0.02363     8.57453
      N   51   -0.35540      1.99936     5.31374    0.04231     7.35540
      N   52   -0.35922      1.99937     5.31742    0.04243     7.35922
      N   53   -0.35016      1.99938     5.30552    0.04527     7.35016
      N   54   -0.35348      1.99934     5.31054    0.04359     7.35348
     Fe   55    0.12428     17.98900     7.84081    0.04591    25.87572
      H   56    0.23505      0.00000     0.76401    0.00094     0.76495
      H   57    0.21831      0.00000     0.78017    0.00152     0.78169
      H   58    0.21677      0.00000     0.78174    0.00150     0.78323
      H   59    0.22901      0.00000     0.76950    0.00149     0.77099
      H   60    0.22086      0.00000     0.77739    0.00175     0.77914
      H   61    0.23110      0.00000     0.76784    0.00105     0.76890
      H   62    0.20988      0.00000     0.78870    0.00142     0.79012
      H   63    0.23348      0.00000     0.76493    0.00159     0.76652
      H   64    0.22686      0.00000     0.77151    0.00163     0.77314
      H   65    0.22011      0.00000     0.77801    0.00188     0.77989
      H   66    0.20042      0.00000     0.79667    0.00291     0.79958
      H   67    0.21257      0.00000     0.78472    0.00271     0.78743
      H   68    0.24950      0.00000     0.74802    0.00249     0.75050
      H   69    0.21205      0.00000     0.78544    0.00251     0.78795
      H   70    0.21634      0.00000     0.78200    0.00166     0.78366
      H   71    0.21718      0.00000     0.78126    0.00156     0.78282
      H   72    0.21982      0.00000     0.77846    0.00171     0.78018
      H   73    0.22012      0.00000     0.77792    0.00195     0.77988
      H   74    0.22633      0.00000     0.77182    0.00185     0.77367
      H   75    0.22791      0.00000     0.77049    0.00160     0.77209
      H   76    0.24088      0.00000     0.75748    0.00165     0.75912
      H   77    0.22224      0.00000     0.77620    0.00156     0.77776
      H   78    0.21144      0.00000     0.78719    0.00137     0.78856
      H   79    0.22238      0.00000     0.77606    0.00156     0.77762
      H   80    0.20675      0.00000     0.79063    0.00262     0.79325
      H   81    0.19503      0.00000     0.80324    0.00173     0.80497
      H   82    0.19512      0.00000     0.80336    0.00153     0.80488
      H   83    0.38598      0.00000     0.61214    0.00188     0.61402
      H   84    0.42903      0.00000     0.56863    0.00234     0.57097
      H   85    0.42175      0.00000     0.57300    0.00525     0.57825
      H   86    0.20288      0.00000     0.79541    0.00171     0.79712
      H   87    0.17140      0.00000     0.82606    0.00253     0.82860
      H   88    0.20141      0.00000     0.79717    0.00143     0.79859
      H   89    0.21089      0.00000     0.78755    0.00155     0.78911
      H   90    0.21550      0.00000     0.78315    0.00135     0.78450
      H   91    0.22043      0.00000     0.77783    0.00174     0.77957
      H   92    0.22122      0.00000     0.77706    0.00172     0.77878
      H   93    0.23563      0.00000     0.76260    0.00177     0.76437
      H   94    0.22946      0.00000     0.76872    0.00182     0.77054
      H   95    0.22729      0.00000     0.77080    0.00191     0.77271
      H   96    0.50702      0.00000     0.49074    0.00224     0.49298
      H   97    0.50967      0.00000     0.48697    0.00335     0.49033
      H   98    0.41492      0.00000     0.58337    0.00171     0.58508
      H   99    0.41410      0.00000     0.58417    0.00173     0.58590
 =======================================================================
   * Total *   -0.00000    125.94544   282.70560    1.34896   410.00000

 Normal termination of Gaussian 16 at Wed Oct 12 14:31:44 2022.
 Gaussian 16:  AM64L-G16RevA.03 25-Dec-2016

 ----------------------------------------------------------------------
 # PBE1PBE/def2TZVP empiricaldispersion=GD3BJ int=(grid=ultrafine) geom
 =check guess=read scrf=(smd,solvent=Chloroform)
 ----------------------------------------------------------------------

 --------------
 1es1_II_S_solv
 --------------
 Structure from the checkpoint file:  "1es1_II_S.chk"
 Charge =  0 Multiplicity = 1

                         Standard orientation:
 ---------------------------------------------------------------------
 Center     Atomic      Atomic             Coordinates (Angstroms)
 Number     Number       Type             X           Y           Z
 ---------------------------------------------------------------------
      1          6           0       -2.376143   -0.158234    5.582419
      2          6           0       -1.849930    0.387159    4.293872
      3          7           0       -1.578163    1.720338    4.069240
      4          6           0       -1.548717   -0.252873    3.136194
      5          6           0       -1.134542    1.839813    2.814967
      6          7           0       -1.100846    0.666369    2.211854
      7          6           0        0.492488   -2.311109   -4.720870
      8          6           0        0.137980   -1.290222   -3.691599
      9          7           0        0.064346    0.060284   -3.940392
     10          6           0       -0.100267   -1.434919   -2.365205
     11          6           0       -0.206164    0.674143   -2.783848
     12          7           0       -0.314690   -0.196163   -1.801193
     13          6           0        2.580579   -0.318988    0.848554
     14          6           0       -1.264239   -3.212404    0.802467
     15          6           0       -4.021767    0.450955   -0.689125
     16          6           0       -0.217458    3.474221   -0.347774
     17          6           0        1.777270   -1.444853    0.838492
     18          6           0        2.264017   -2.780018    1.073423
     19          6           0        1.170587   -3.578740    1.124239
     20          6           0        0.017919   -2.732608    0.892698
     21          6           0        1.165071   -5.080504    1.305762
     22          6           0        3.705352   -3.264006    1.184463
     23          6           0        4.484369   -3.201514   -0.122651
     24          6           0        3.787773   -3.935281   -1.247163
     25          8           0        3.539582   -5.150158   -1.105867
     26          8           0        3.483353   -3.294029   -2.273536
     27          6           0       -2.358136   -2.441833    0.423677
     28          6           0       -3.661609   -3.015666    0.141846
     29          6           0       -4.426249   -1.992472   -0.318825
     30          6           0       -3.606946   -0.792234   -0.269507
     31          6           0       -4.035878   -4.497255    0.302308
     32          6           0       -5.654240   -2.134150   -0.940674
     33          6           0       -6.851707   -1.801503   -0.335703
     34          6           0       -3.211060    1.587157   -0.764124
     35          6           0       -3.691543    2.887398   -1.197214
     36          6           0       -2.653297    3.770407   -1.070169
     37          6           0       -1.526759    2.985827   -0.563604
     38          6           0       -5.149860    3.203268   -1.560783
     39          6           0       -2.612248    5.139281   -1.340673
     40          6           0       -3.665314    5.955020   -1.771133
     41          6           0        0.865427    2.684600    0.075569
     42          6           0        2.203748    3.173138    0.395667
     43          6           0        2.980533    2.102598    0.695824
     44          6           0        2.127857    0.959533    0.603244
     45          6           0        2.657374    4.615141    0.521609
     46          6           0        4.473976    2.120190    1.027343
     47          6           0        5.287805    2.260104   -0.246727
     48          6           0        6.749057    2.565944    0.022361
     49          8           0        7.490249    2.815605   -0.952242
     50          8           0        7.155736    2.563120    1.204820
     51          7           0        0.392524   -1.422220    0.682998
     52          7           0       -2.311195   -1.089399    0.147173
     53          7           0       -1.889324    1.643010   -0.384390
     54          7           0        0.818749    1.315536    0.277398
     55         26           0       -0.735671    0.118124    0.211960
     56          1           0       -2.614104   -1.194289    5.460501
     57          1           0       -1.633566   -0.050194    6.345182
     58          1           0       -3.257406    0.379406    5.863877
     59          1           0       -1.643811   -1.305175    2.967324
     60          1           0       -0.845035    2.763880    2.359791
     61          1           0        0.080271   -3.257980   -4.440846
     62          1           0        0.094253   -2.015042   -5.668843
     63          1           0        1.557109   -2.392243   -4.790868
     64          1           0       -0.118932   -2.365957   -1.838213
     65          1           0       -0.319469    1.732174   -2.671455
     66          1           0        3.621272   -0.448991    1.060585
     67          1           0       -1.432828   -4.242466    1.037944
     68          1           0       -5.045785    0.556158   -0.981046
     69          1           0       -0.039022    4.515368   -0.518278
     70          1           0        0.526475   -5.526125    0.571925
     71          1           0        2.159653   -5.457507    1.189248
     72          1           0        0.805182   -5.320142    2.284513
     73          1           0        3.645179   -4.301769    1.438093
     74          1           0        4.192268   -2.578813    1.846521
     75          1           0        5.400510   -3.726017    0.051942
     76          1           0        4.504190   -2.170421   -0.407877
     77          1           0       -4.661787   -4.797231   -0.512033
     78          1           0       -3.146086   -5.091526    0.305958
     79          1           0       -4.560390   -4.634746    1.224741
     80          1           0       -5.677991   -2.519990   -1.938403
     81          1           0       -6.857699   -1.413469    0.661440
     82          1           0       -7.772686   -1.932032   -0.864533
     83          1           0       -5.696987    4.122782   -1.567480
     84          1           0       -5.179180    3.402799   -0.509961
     85          1           0       -4.651642    3.703182   -2.365001
     86          1           0       -1.666594    5.620645   -1.203096
     87          1           0       -4.637172    5.535750   -1.927995
     88          1           0       -3.498367    6.997800   -1.943294
     89          1           0        3.710180    4.674988    0.340178
     90          1           0        2.137293    5.216486   -0.194491
     91          1           0        2.444630    4.971112    1.507978
     92          1           0        4.708531    1.160070    1.437286
     93          1           0        4.650106    3.005054    1.602577
     94          1           0        4.895156    3.114761   -0.756911
     95          1           0        5.267897    1.299752   -0.718136
     96          1           0        7.501935    2.226079   -1.709819
     97          1           0        3.132192   -5.643275   -1.821736
     98          1           0       -1.692688    2.464403    4.727458
     99          1           0        0.190561    0.503883   -4.827686
 ---------------------------------------------------------------------

 SCF Done:  E(RPBE1PBE) =  -3627.57742637     A.U. after   15 cycles

 The electronic state is 1-A.
 Alpha  occ. eigenvalues -- -256.30622 -30.07595 -25.90404 -25.90035 -25.90010
 Alpha  occ. eigenvalues --  -19.26426 -19.25700 -19.18118 -19.17306 -14.43248
 Alpha  occ. eigenvalues --  -14.42978 -14.38111 -14.37958 -14.37366 -14.36771
 Alpha  occ. eigenvalues --  -14.36688 -14.36513 -10.35075 -10.34720 -10.26909
 Alpha  occ. eigenvalues --  -10.26534 -10.26376 -10.24974 -10.24871 -10.24511
 Alpha  occ. eigenvalues --  -10.24361 -10.24284 -10.23919 -10.23779 -10.23696
 Alpha  occ. eigenvalues --  -10.23516 -10.23450 -10.23128 -10.22256 -10.22124
 Alpha  occ. eigenvalues --  -10.22094 -10.22014 -10.21984 -10.21886 -10.21775
 Alpha  occ. eigenvalues --  -10.21735 -10.21638 -10.21538 -10.21344 -10.21315
 Alpha  occ. eigenvalues --  -10.21298 -10.21140 -10.21134 -10.21047 -10.20856
 Alpha  occ. eigenvalues --  -10.20820 -10.20786 -10.20753 -10.20705 -10.20618
 Alpha  occ. eigenvalues --  -10.20425 -10.20286 -10.20225 -10.18221  -3.42030
 Alpha  occ. eigenvalues --   -2.17882  -2.17368  -2.17308  -1.16945  -1.16479
 Alpha  occ. eigenvalues --   -1.04906  -1.04736  -1.02980  -1.02286  -0.96982
 Alpha  occ. eigenvalues --   -0.96153  -0.95715  -0.94882  -0.89867  -0.89724
 Alpha  occ. eigenvalues --   -0.85139  -0.83838  -0.83231  -0.82986  -0.82442
 Alpha  occ. eigenvalues --   -0.80794  -0.79954  -0.79844  -0.79582  -0.78978
 Alpha  occ. eigenvalues --   -0.78167  -0.77720  -0.76155  -0.74607  -0.73443
 Alpha  occ. eigenvalues --   -0.72937  -0.71904  -0.71119  -0.70900  -0.70822
 Alpha  occ. eigenvalues --   -0.69634  -0.69069  -0.68734  -0.65729  -0.65332
 Alpha  occ. eigenvalues --   -0.64446  -0.64264  -0.63315  -0.63080  -0.61946
 Alpha  occ. eigenvalues --   -0.61480  -0.60742  -0.60491  -0.58501  -0.56741
 Alpha  occ. eigenvalues --   -0.55376  -0.55190  -0.55044  -0.54589  -0.54052
 Alpha  occ. eigenvalues --   -0.53510  -0.52469  -0.52347  -0.51775  -0.51306
 Alpha  occ. eigenvalues --   -0.50693  -0.50681  -0.50273  -0.49607  -0.49291
 Alpha  occ. eigenvalues --   -0.48592  -0.48030  -0.47671  -0.47611  -0.47371
 Alpha  occ. eigenvalues --   -0.46722  -0.46608  -0.46449  -0.46207  -0.45833
 Alpha  occ. eigenvalues --   -0.45500  -0.45020  -0.44722  -0.44167  -0.43650
 Alpha  occ. eigenvalues --   -0.43493  -0.43285  -0.42610  -0.42452  -0.42222
 Alpha  occ. eigenvalues --   -0.42127  -0.42086  -0.41884  -0.41843  -0.41704
 Alpha  occ. eigenvalues --   -0.41585  -0.41455  -0.41363  -0.41273  -0.40677
 Alpha  occ. eigenvalues --   -0.40198  -0.40077  -0.39860  -0.39757  -0.39694
 Alpha  occ. eigenvalues --   -0.39310  -0.38888  -0.38685  -0.38426  -0.38079
 Alpha  occ. eigenvalues --   -0.37765  -0.37572  -0.37168  -0.36976  -0.36813
 Alpha  occ. eigenvalues --   -0.36660  -0.36111  -0.35944  -0.35703  -0.34871
 Alpha  occ. eigenvalues --   -0.34450  -0.33950  -0.33228  -0.32998  -0.32655
 Alpha  occ. eigenvalues --   -0.32444  -0.32158  -0.31807  -0.31575  -0.31373
 Alpha  occ. eigenvalues --   -0.30603  -0.30394  -0.28887  -0.28018  -0.27697
 Alpha  occ. eigenvalues --   -0.27307  -0.26984  -0.26231  -0.24670  -0.24216
 Alpha  occ. eigenvalues --   -0.23498  -0.23272  -0.23189  -0.22375  -0.20343
 Alpha  occ. eigenvalues --   -0.19731  -0.18731  -0.18250  -0.17852  -0.17750
 Alpha virt. eigenvalues --   -0.07045  -0.06237  -0.02350  -0.00068   0.00271
 Alpha virt. eigenvalues --    0.00351   0.01193   0.01845   0.02813   0.03119
 Alpha virt. eigenvalues --    0.03626   0.03967   0.04171   0.04802   0.05173

 Mulliken charges:
               1
     1  C   -0.407232
     2  C    0.138780
     3  N   -0.210427
     4  C   -0.231895
     5  C   -0.001548
     6  N   -0.003262
     7  C   -0.405271
     8  C    0.130740
     9  N   -0.212132
    10  C   -0.220206
    11  C   -0.013883
    12  N    0.006721
    13  C   -0.519597
    14  C   -0.615733
    15  C   -0.510685
    16  C   -0.616534
    17  C    0.277238
    18  C   -0.169184
    19  C    0.002337
    20  C    0.162944
    21  C   -0.420456
    22  C   -0.243893
    23  C   -0.133077
    24  C    0.282848
    25  O   -0.331270
    26  O   -0.437538
    27  C    0.278938
    28  C   -0.025789
    29  C   -0.002618
    30  C    0.284722
    31  C   -0.420996
    32  C   -0.354925
    33  C   -0.299489
    34  C    0.280092
    35  C   -0.213326
    36  C    0.091380
    37  C    0.125448
    38  C   -0.789960
    39  C   -0.184716
    40  C   -0.359583
    41  C    0.224366
    42  C   -0.049518
    43  C   -0.032704
    44  C    0.269868
    45  C   -0.428199
    46  C   -0.341157
    47  C   -0.240720
    48  C    0.304142
    49  O   -0.338621
    50  O   -0.406411
    51  N    0.003893
    52  N   -0.004584
    53  N    0.010990
    54  N    0.043647
    55  Fe  -0.306476
    56  H    0.158147
    57  H    0.150035
    58  H    0.147588
    59  H    0.172403
    60  H    0.187489
    61  H    0.153568
    62  H    0.143758
    63  H    0.156130
    64  H    0.158110
    65  H    0.186273
    66  H    0.130319
    67  H    0.148626
    68  H    0.171904
    69  H    0.139826
    70  H    0.144089
    71  H    0.135993
    72  H    0.152290
    73  H    0.126627
    74  H    0.132831
    75  H    0.132592
    76  H    0.117839
    77  H    0.148269
    78  H    0.138589
    79  H    0.154784
    80  H    0.148202
    81  H    0.152823
    82  H    0.149488
    83  H    0.284586
    84  H    0.288731
    85  H    0.254410
    86  H    0.134631
    87  H    0.108815
    88  H    0.155999
    89  H    0.140817
    90  H    0.145073
    91  H    0.153312
    92  H    0.120973
    93  H    0.144343
    94  H    0.145706
    95  H    0.158530
    96  H    0.388626
    97  H    0.373159
    98  H    0.274884
    99  H    0.273334
 Sum of Mulliken charges =  -0.00000

 Dipole moment (field-independent basis, Debye):
    X=              1.5511    Y=             -1.5098    Z=             -1.3442  Tot=              2.5480
 Quadrupole moment (field-independent basis, Debye-Ang):
   XX=           -357.3018   YY=           -274.3003   ZZ=           -274.0754
   XY=            -27.6871   XZ=            -45.0071   YZ=              3.1219

 Normal termination of Gaussian 16 at Thu Oct 13 01:45:15 2022.
