 Gaussian 16, Revision A.03,
 Gaussian 16:  AM64L-G16RevA.03 25-Dec-2016

 ----------------------------------------------------------------------
 # PBE1PBE/def2TZVP empiricaldispersion=GD3BJ scf=maxcycle=999 geom=che
 ck pop=nbo
 ----------------------------------------------------------------------

 ----------
 1h9xc_II_Q
 ----------
 Structure from the checkpoint file:  "1h9xc_II_Q.chk"
 Charge =  0 Multiplicity = 5

                         Standard orientation:
 ---------------------------------------------------------------------
 Center     Atomic      Atomic             Coordinates (Angstroms)
 Number     Number       Type             X           Y           Z
 ---------------------------------------------------------------------
      1          6           0        2.452058   -1.025755    5.162792
      2          6           0        1.651891   -0.747677    3.922044
      3          7           0        0.287472   -0.647492    3.938764
      4          6           0        2.053335   -0.557297    2.631070
      5          6           0       -0.142303   -0.420604    2.704951
      6          7           0        0.895433   -0.353022    1.893339
      7          6           0       -1.120115    2.256990   -2.849099
      8          6           0       -0.679046    0.827008   -3.006187
      9         16           0        0.902632    0.346249   -2.272776
     10          6           0        1.028229   -1.247212   -3.112209
     11         26           0        0.905995   -0.028162   -0.102785
     12          6           0       -2.555194   -0.237735   -0.066721
     13          6           0        1.086365   -3.392107   -0.438190
     14          6           0        4.341598    0.213047   -0.352527
     15          6           0        0.736012    3.291606    0.606570
     16          7           0       -0.459664   -1.528184   -0.231341
     17          6           0       -1.834547   -1.395853   -0.230853
     18          6           0       -2.414215   -2.704771   -0.476950
     19          6           0       -1.434013   -3.585160   -0.574254
     20          6           0       -0.181638   -2.856354   -0.385035
     21          6           0       -1.497299   -5.113436   -0.811885
     22          6           0       -3.955139   -2.924531   -0.561216
     23          6           0       -4.549534   -3.178120    0.847475
     24          6           0       -6.053472   -3.106719    0.932687
     25          8           0       -6.586405   -3.449749    2.019128
     26          8           0       -6.693297   -2.702060   -0.057804
     27          7           0        2.383633   -1.315745   -0.322869
     28          6           0        2.278889   -2.698120   -0.437836
     29          6           0        3.586049   -3.274901   -0.588205
     30          6           0        4.466710   -2.273378   -0.584226
     31          6           0        3.754952   -1.041904   -0.425214
     32          6           0        3.858985   -4.795998   -0.728660
     33          6           0        6.024239   -2.449625   -0.721721
     34          6           0        6.581937   -2.815249   -1.954284
     35          7           0        2.262186    1.460362    0.079747
     36          6           0        3.635625    1.366373   -0.077661
     37          6           0        4.222408    2.672233    0.140906
     38          6           0        3.226885    3.520363    0.383575
     39          6           0        1.987112    2.772465    0.388451
     40          6           0        5.745513    2.969719    0.076905
     41          6           0        3.398795    5.041595    0.760275
     42          6           0        3.992626    5.892584   -0.111362
     43          7           0       -0.583712    1.226473    0.196148
     44          6           0       -0.451957    2.597621    0.501518
     45          6           0       -1.746246    3.176906    0.652968
     46          6           0       -2.641485    2.207424    0.478892
     47          6           0       -1.943602    0.989472    0.172102
     48          6           0       -2.026241    4.674407    0.973821
     49          6           0       -4.206384    2.349507    0.532670
     50          6           0       -4.720322    2.587285   -0.905065
     51          6           0       -6.172405    2.907730   -1.098575
     52          8           0       -6.585478    2.911998   -2.289814
     53          8           0       -6.882843    3.168567   -0.096734
     54          1           0        1.954399   -1.297283   -3.645691
     55          1           0        0.989969   -2.035158   -2.389314
     56          1           0        0.214756   -1.353575   -3.799122
     57          1           0       -1.222541    2.706755   -3.814562
     58          1           0       -2.060999    2.286195   -2.340390
     59          1           0       -0.390456    2.794899   -2.280635
     60          1           0       -1.437646    0.204114   -2.580241
     61          1           0       -0.629359    0.615307   -4.053857
     62          1           0        3.444890   -0.646331    5.039411
     63          1           0        1.988993   -0.547483    6.000483
     64          1           0        2.492186   -2.081502    5.332165
     65          1           0        3.057796   -0.564171    2.262409
     66          1           0       -0.291605   -0.731686    4.749678
     67          1           0       -1.166164   -0.310117    2.414434
     68          1           0       -6.403641   -4.315690    2.391075
     69          1           0       -4.240981   -4.150003    1.171727
     70          1           0       -4.140698   -2.452826    1.519563
     71          1           0       -4.156960   -3.769300   -1.186144
     72          1           0       -4.412413   -2.055096   -0.985345
     73          1           0       -3.622772   -0.280678   -0.124449
     74          1           0       -4.472307    3.179819    1.152965
     75          1           0       -4.636936    1.452451    0.926135
     76          1           0       -4.153405    3.393591   -1.321449
     77          1           0       -4.505105    1.707391   -1.474599
     78          1           0       -7.213034    4.059772    0.038648
     79          1           0       -0.617376   -5.430298   -1.331726
     80          1           0       -1.556781   -5.618600    0.129481
     81          1           0       -2.361485   -5.347821   -1.397672
     82          1           0       -2.076440    5.231293    0.061539
     83          1           0       -2.956680    4.759514    1.495300
     84          1           0       -1.238037    5.061608    1.585138
     85          1           0        0.676354    4.323843    0.881941
     86          1           0        1.153551   -4.458984   -0.484655
     87          1           0        4.793373   -4.946090   -1.227951
     88          1           0        3.897981   -5.242569    0.242913
     89          1           0        3.073802   -5.248190   -1.297789
     90          1           0        5.395847    0.290723   -0.518131
     91          1           0        5.977349    3.444786   -0.853398
     92          1           0        6.016871    3.616434    0.885004
     93          1           0        6.291584    2.052874    0.155019
     94          1           0        3.046608    5.402133    1.704138
     95          1           0        3.655953    5.678570   -1.104211
     96          1           0        3.736258    6.899837    0.142835
     97          1           0        5.054525    5.771242   -0.060912
     98          1           0        6.657571   -2.290315    0.125870
     99          1           0        5.811351   -3.182147   -2.599639
    100          1           0        7.046490   -1.962017   -2.402711
    101          1           0        7.313785   -3.580745   -1.801593
 ---------------------------------------------------------------------

 SCF Done:  E(UPBE1PBE) =  -3880.52094852     A.U. after   66 cycles

 Alpha virt. eigenvalues --    1.04291   1.04371   1.05289   1.05556   1.05735
 Alpha virt. eigenvalues --    1.06049   1.06145   1.06502   1.06700   1.06839
 Alpha virt. eigenvalues --    1.07094   1.07261   1.07608   1.07829   1.08158

  Beta  occ. eigenvalues -- -256.39024 -89.04654 -30.15565 -25.98657 -25.98215
  Beta  occ. eigenvalues --  -25.97816 -19.26249 -19.25312 -19.18130 -19.17223
  Beta  occ. eigenvalues --  -14.45929 -14.40907 -14.37473 -14.37287 -14.36750
  Beta  occ. eigenvalues --  -14.36508 -10.35209 -10.34639 -10.29235 -10.27143
  Beta  occ. eigenvalues --  -10.24707 -10.24231 -10.24012 -10.23715 -10.23672
  Beta  occ. eigenvalues --  -10.23655 -10.23495 -10.23102 -10.23056 -10.22979
  Beta  occ. eigenvalues --  -10.22909 -10.22592 -10.22590 -10.22092 -10.22041
  Beta  occ. eigenvalues --  -10.21870 -10.21626 -10.21297 -10.21236 -10.20977
  Beta  occ. eigenvalues --  -10.20803 -10.20782 -10.20729 -10.20696 -10.20694
  Beta  occ. eigenvalues --  -10.20596 -10.20566 -10.20565 -10.20520 -10.20512
  Beta  occ. eigenvalues --  -10.20377 -10.20155 -10.19836 -10.19490 -10.19315
  Beta  occ. eigenvalues --  -10.19204 -10.18841  -8.02462  -5.96061  -5.95825
  Beta  occ. eigenvalues --   -5.95362  -3.47913  -2.23268  -2.23054  -2.22762
  Beta  occ. eigenvalues --   -1.16683  -1.15868  -1.07753  -1.03041  -1.01448
  Beta  occ. eigenvalues --   -0.97011  -0.96010  -0.95567  -0.94744  -0.92322
  Beta  occ. eigenvalues --   -0.85106  -0.82737  -0.82275  -0.82225  -0.82030
  Beta  occ. eigenvalues --   -0.81381  -0.80633  -0.79748  -0.79623  -0.78495
  Beta  occ. eigenvalues --   -0.77834  -0.77337  -0.77146  -0.76653  -0.74214
  Beta  occ. eigenvalues --   -0.73611  -0.73215  -0.71963  -0.71220  -0.70584
  Beta  occ. eigenvalues --   -0.69671  -0.69058  -0.68394  -0.67644  -0.66124
  Beta  occ. eigenvalues --   -0.65893  -0.65465  -0.64241  -0.64001  -0.63461
  Beta  occ. eigenvalues --   -0.61584  -0.59791  -0.59242  -0.57982  -0.57678
  Beta  occ. eigenvalues --   -0.56690  -0.54853  -0.53850  -0.53559  -0.53245
  Beta  occ. eigenvalues --   -0.52840  -0.51723  -0.51349  -0.51197  -0.50558
  Beta  occ. eigenvalues --   -0.50431  -0.49947  -0.49196  -0.49080  -0.48823
  Beta  occ. eigenvalues --   -0.48515  -0.47894  -0.47606  -0.47414  -0.47261
  Beta  occ. eigenvalues --   -0.46676  -0.46220  -0.45560  -0.45289  -0.45035
  Beta  occ. eigenvalues --   -0.45011  -0.44962  -0.44510  -0.44351  -0.44167
  Beta  occ. eigenvalues --   -0.43975  -0.43676  -0.43410  -0.43205  -0.43087
  Beta  occ. eigenvalues --   -0.42995  -0.42884  -0.42446  -0.42240  -0.42018
  Beta  occ. eigenvalues --   -0.41520  -0.41387  -0.41134  -0.40670  -0.40518
  Beta  occ. eigenvalues --   -0.39948  -0.39654  -0.39522  -0.39359  -0.39212
  Beta  occ. eigenvalues --   -0.38888  -0.38769  -0.38501  -0.38089  -0.37877
  Beta  occ. eigenvalues --   -0.37775  -0.37630  -0.37536  -0.37262  -0.36830
  Beta  occ. eigenvalues --   -0.36715  -0.36481  -0.36152  -0.36036  -0.35735
  Beta  occ. eigenvalues --   -0.35304  -0.34953  -0.34443  -0.34197  -0.33625
  Beta  occ. eigenvalues --   -0.33335  -0.33306  -0.32822  -0.32575  -0.32411
  Beta  occ. eigenvalues --   -0.31975  -0.31106  -0.31022  -0.30153  -0.28439
  Beta  occ. eigenvalues --   -0.27907  -0.27483  -0.27215  -0.26600  -0.26375
  Beta  occ. eigenvalues --   -0.25384  -0.24776  -0.23826  -0.23441  -0.22923
  Beta  occ. eigenvalues --   -0.21617  -0.18035  -0.17485
  Beta virt. eigenvalues --   -0.07747  -0.06524  -0.04224  -0.02811  -0.02465
  Beta virt. eigenvalues --   -0.02019  -0.01003  -0.00764   0.00674   0.01272
  Beta virt. eigenvalues --    0.01402   0.01766   0.02347   0.02673   0.03236

 Mulliken charges and spin densities:
               1          2
     1  C   -0.381637   0.000017
     2  C    0.167162   0.000422
     3  N   -0.217576  -0.000414
     4  C   -0.208691   0.004535
     5  C    0.019316   0.000812
     6  N    0.073003  -0.026717
     7  C   -0.329254   0.000755
     8  C   -0.203095   0.008490
     9  S    0.092353  -0.037137
    10  C   -0.328148  -0.001625
    11  Fe  -0.457830   1.148052
    12  C   -0.697737   0.255080
    13  C   -0.511552  -0.083233
    14  C   -0.549995   0.280200
    15  C   -0.534444  -0.055134
    16  N    0.037535   0.027341
    17  C    0.286474  -0.060359
    18  C   -0.016430   0.081245
    19  C   -0.042812  -0.053935
    20  C    0.188742   0.131164
    21  C   -0.410462   0.003209
    22  C   -0.301816  -0.008701
    23  C   -0.294915   0.003057
    24  C    0.325630   0.000490
    25  O   -0.331762   0.000180
    26  O   -0.342126  -0.000006
    27  N    0.055729  -0.019684
    28  C    0.170098   0.156022
    29  C   -0.014431   0.008245
    30  C   -0.012344   0.012178
    31  C    0.174417  -0.026369
    32  C   -0.393677  -0.000134
    33  C   -0.302803   1.021973
    34  C   -0.322766  -0.071568
    35  N    0.051423   0.054471
    36  C    0.326088  -0.086626
    37  C   -0.069408   0.168462
    38  C    0.016010  -0.182501
    39  C    0.214891   0.133836
    40  C   -0.417156  -0.010915
    41  C   -0.299332   0.991499
    42  C   -0.298693  -0.077408
    43  N    0.116383  -0.048723
    44  C    0.265223   0.158984
    45  C   -0.035978  -0.017400
    46  C    0.031843   0.114909
    47  C    0.136297  -0.028780
    48  C   -0.419297  -0.000420
    49  C   -0.259431  -0.016399
    50  C   -0.252298   0.005139
    51  C    0.299341   0.000777
    52  O   -0.352140   0.000431
    53  O   -0.353259  -0.000072
    54  H    0.146047  -0.000364
    55  H    0.171564  -0.001108
    56  H    0.144379  -0.000061
    57  H    0.125695   0.000021
    58  H    0.102275   0.000265
    59  H    0.144890   0.000173
    60  H    0.158981  -0.001534
    61  H    0.144179  -0.001086
    62  H    0.151892   0.000022
    63  H    0.125411   0.000005
    64  H    0.146668  -0.000011
    65  H    0.169228  -0.000909
    66  H    0.234572  -0.000141
    67  H    0.186572  -0.000471
    68  H    0.345733   0.000029
    69  H    0.119184  -0.000133
    70  H    0.144114   0.000454
    71  H    0.119022   0.000738
    72  H    0.148500   0.002839
    73  H    0.124555  -0.014557
    74  H    0.093563   0.001326
    75  H    0.120463   0.003501
    76  H    0.141275  -0.000241
    77  H    0.141791  -0.000223
    78  H    0.352682   0.000168
    79  H    0.133131  -0.000221
    80  H    0.133252  -0.001463
    81  H    0.133575  -0.000581
    82  H    0.142177   0.000529
    83  H    0.121450  -0.000097
    84  H    0.132470  -0.000285
    85  H    0.100906   0.007873
    86  H    0.101790   0.003449
    87  H    0.136972  -0.000515
    88  H    0.135841   0.001266
    89  H    0.125996  -0.000724
    90  H    0.107544  -0.012843
    91  H    0.144605   0.004552
    92  H    0.139428   0.004657
    93  H    0.127404   0.001730
    94  H    0.123456  -0.050280
    95  H    0.131355   0.038607
    96  H    0.115955   0.008965
    97  H    0.125344   0.085432
    98  H    0.121542  -0.045388
    99  H    0.131030   0.005106
   100  H    0.129123   0.070093
   101  H    0.117756   0.033722
 Sum of Mulliken charges =  -0.00000   4.00000

 Dipole moment (field-independent basis, Debye):
    X=              3.0932    Y=             -1.9273    Z=              7.8866  Tot=              8.6880
 Quadrupole moment (field-independent basis, Debye-Ang):
   XX=           -363.3302   YY=           -289.6539   ZZ=           -293.2657
   XY=              0.4014   XZ=            -30.9676   YZ=             -4.5836

 Summary of Natural Population Analysis:

                                       Natural Population
                Natural  -----------------------------------------------
    Atom  No    Charge         Core      Valence    Rydberg      Total
 -----------------------------------------------------------------------
      C    1   -0.31895      0.99970     2.31615    0.00310     3.31895
      C    2    0.05186      0.99957     1.93929    0.00928     2.94814
      N    3   -0.23972      0.99968     2.72994    0.01010     3.73972
      C    4   -0.02870      0.99944     2.02033    0.00892     3.02870
      C    5    0.10363      0.99965     1.88585    0.01087     2.89637
      N    6   -0.17376      0.99968     2.64566    0.02842     3.67376
      C    7   -0.31243      0.99972     2.30655    0.00616     3.31243
      C    8   -0.26169      0.99962     2.25219    0.00989     3.26169
      S    9    0.33450      4.99900     2.64569    0.02081     7.66550
      C   10   -0.37641      0.99963     2.36766    0.00912     3.37641
     Fe   11    0.56885      8.99529     3.40930    0.02657    12.43115
      C   12   -0.08594      0.99945     2.07757    0.00892     3.08594
      C   13   -0.14641      0.99948     2.13828    0.00865     3.14641
      C   14   -0.05450      0.99946     2.04689    0.00815     3.05450
      C   15   -0.13031      0.99947     2.12271    0.00813     3.13031
      N   16   -0.18455      0.99966     2.66205    0.02284     3.68455
      C   17    0.06070      0.99951     1.92954    0.01026     2.93930
      C   18    0.00623      0.99932     1.98475    0.00970     2.99377
      C   19   -0.02860      0.99933     2.02072    0.00855     3.02860
      C   20    0.10818      0.99952     1.88142    0.01088     2.89182
      C   21   -0.31641      0.99970     2.31317    0.00355     3.31641
      C   22   -0.20741      0.99968     2.20042    0.00731     3.20741
      C   23   -0.25793      0.99963     2.24964    0.00866     3.25793
      C   24    0.38239      0.99973     1.60063    0.01725     2.61761
      O   25   -0.33272      0.99980     3.31804    0.01488     4.33272
      O   26   -0.28181      0.99989     3.26999    0.01193     4.28181
      N   27   -0.19980      0.99968     2.67605    0.02407     3.69980
      C   28    0.11244      0.99949     1.87750    0.01056     2.88756
      C   29   -0.00169      0.99933     1.99368    0.00869     3.00169
      C   30   -0.03790      0.99931     2.02814    0.01045     3.03790
      C   31    0.07770      0.99949     1.91301    0.00980     2.92230
      C   32   -0.31592      0.99970     2.31277    0.00345     3.31592
      C   33    0.43061      0.99966     1.56241    0.00732     2.56939
      C   34   -0.36808      0.99968     2.36149    0.00692     3.36808
      N   35   -0.16579      0.99967     2.64300    0.02312     3.66579
      C   36    0.05349      0.99951     1.93693    0.01007     2.94651
      C   37    0.05294      0.99932     1.93943    0.00831     2.94706
      C   38   -0.10108      0.99932     2.09135    0.01041     3.10108
      C   39    0.12388      0.99950     1.86648    0.01014     2.87612
      C   40   -0.32088      0.99970     2.31762    0.00356     3.32088
      C   41    0.41041      0.99958     1.58201    0.00800     2.58959
      C   42   -0.37114      0.99963     2.36366    0.00785     3.37114
      N   43   -0.21285      0.99967     2.68894    0.02423     3.71285
      C   44    0.12019      0.99947     1.86977    0.01057     2.87981
      C   45   -0.02183      0.99931     2.01364    0.00888     3.02183
      C   46    0.02001      0.99931     1.97089    0.00979     2.97999
      C   47    0.07178      0.99950     1.91813    0.01059     2.92822
      C   48   -0.31540      0.99970     2.31213    0.00357     3.31540
      C   49   -0.21056      0.99968     2.20452    0.00635     3.21056
      C   50   -0.25498      0.99962     2.24678    0.00859     3.25498
      C   51    0.38405      0.99973     1.59859    0.01763     2.61595
      O   52   -0.28737      0.99990     3.27612    0.01135     4.28737
      O   53   -0.34160      0.99980     3.32747    0.01433     4.34160
      H   54    0.11593      0.00000     0.38362    0.00045     0.38407
      H   55    0.12898      0.00000     0.37029    0.00073     0.37102
      H   56    0.11308      0.00000     0.38626    0.00066     0.38692
      H   57    0.10649      0.00000     0.39297    0.00054     0.39351
      H   58    0.11261      0.00000     0.38626    0.00112     0.38739
      H   59    0.11455      0.00000     0.38458    0.00087     0.38545
      H   60    0.11654      0.00000     0.38239    0.00107     0.38346
      H   61    0.11097      0.00000     0.38836    0.00068     0.38903
      H   62    0.11849      0.00000     0.38103    0.00048     0.38151
      H   63    0.10775      0.00000     0.39157    0.00067     0.39225
      H   64    0.11213      0.00000     0.38717    0.00069     0.38787
      H   65    0.12291      0.00000     0.37632    0.00077     0.37709
      H   66    0.20857      0.00000     0.29064    0.00079     0.29143
      H   67    0.11762      0.00000     0.38148    0.00090     0.38238
      H   68    0.25331      0.00000     0.24552    0.00117     0.24669
      H   69    0.10557      0.00000     0.39358    0.00084     0.39443
      H   70    0.11764      0.00000     0.38164    0.00072     0.38236
      H   71    0.10934      0.00000     0.38993    0.00073     0.39066
      H   72    0.11773      0.00000     0.38149    0.00079     0.38227
      H   73    0.10819      0.00000     0.39053    0.00127     0.39181
      H   74    0.10574      0.00000     0.39339    0.00087     0.39426
      H   75    0.10715      0.00000     0.39185    0.00100     0.39285
      H   76    0.11986      0.00000     0.37949    0.00065     0.38014
      H   77    0.12051      0.00000     0.37881    0.00068     0.37949
      H   78    0.25881      0.00000     0.23990    0.00129     0.24119
      H   79    0.10905      0.00000     0.39024    0.00071     0.39095
      H   80    0.10692      0.00000     0.39226    0.00081     0.39308
      H   81    0.10849      0.00000     0.39073    0.00078     0.39151
      H   82    0.10851      0.00000     0.39069    0.00079     0.39149
      H   83    0.10582      0.00000     0.39337    0.00081     0.39418
      H   84    0.10834      0.00000     0.39098    0.00068     0.39166
      H   85    0.11062      0.00000     0.38820    0.00119     0.38938
      H   86    0.10892      0.00000     0.38976    0.00132     0.39108
      H   87    0.10962      0.00000     0.38966    0.00073     0.39038
      H   88    0.10908      0.00000     0.39012    0.00079     0.39092
      H   89    0.10640      0.00000     0.39289    0.00072     0.39360
      H   90    0.10718      0.00000     0.39167    0.00115     0.39282
      H   91    0.11155      0.00000     0.38774    0.00071     0.38845
      H   92    0.11037      0.00000     0.38892    0.00071     0.38963
      H   93    0.10890      0.00000     0.39047    0.00063     0.39110
      H   94    0.07598      0.00000     0.42318    0.00084     0.42402
      H   95    0.13067      0.00000     0.36870    0.00063     0.36933
      H   96    0.11494      0.00000     0.38449    0.00057     0.38506
      H   97    0.15084      0.00000     0.34850    0.00065     0.34916
      H   98    0.07466      0.00000     0.42449    0.00086     0.42534
      H   99    0.11288      0.00000     0.38643    0.00069     0.38712
      H  100    0.14563      0.00000     0.35389    0.00048     0.35437
      H  101    0.12540      0.00000     0.37404    0.00056     0.37460
 =======================================================================
   * Total *    2.00000     64.97283   137.39744    0.62973   203.00000

 Normal termination of Gaussian 16 at Sun Sep 11 02:01:51 2022.
