 Gaussian 16, Revision A.03,

 ---------------------------------------------------------------------
 # polar def2tzvp empiricaldispersion=gd3bj int=grid=ultrafine pbe1pbe
 ---------------------------------------------------------------------

 ----------
 1h9xc_II_S
 ----------
 Symbolic Z-matrix:
 Charge =  0 Multiplicity = 1

 SCF Done:  E(RPBE1PBE) =  -3880.49193831     A.U. after   41 cycles

  Exact polarizability: 901.783 -72.1111012.967 -30.658  87.217 449.395
 Approx polarizability:2490.629********9591.901-574.5671704.8441011.733

 Normal termination of Gaussian 16 at Sat Sep  3 03:32:42 2022.
 Gaussian 16:  ES64L-G16RevA.03 25-Dec-2016

 ----------------------------------------------------------------------
 # PBE1PBE/def2TZVP empiricaldispersion=GD3BJ int=(grid=ultrafine) geom
 =check guess=read pop=nbo scf=qc
 ----------------------------------------------------------------------

 --------------
 1h9xc_II_S_nbo
 --------------
 Structure from the checkpoint file:  "1h9xc_II_S.chk"
 Charge =  0 Multiplicity = 1

                         Standard orientation:
 ---------------------------------------------------------------------
 Center     Atomic      Atomic             Coordinates (Angstroms)
 Number     Number       Type             X           Y           Z
 ---------------------------------------------------------------------
      1          6           0        2.452058   -1.025755    5.162792
      2          6           0        1.651891   -0.747677    3.922044
      3          7           0        0.287472   -0.647492    3.938764
      4          6           0        2.053335   -0.557297    2.631070
      5          6           0       -0.142303   -0.420604    2.704951
      6          7           0        0.895433   -0.353022    1.893339
      7          6           0       -1.120115    2.256990   -2.849099
      8          6           0       -0.679046    0.827008   -3.006187
      9         16           0        0.902632    0.346249   -2.272776
     10          6           0        1.028229   -1.247212   -3.112209
     11         26           0        0.905995   -0.028162   -0.102785
     12          6           0       -2.555194   -0.237735   -0.066721
     13          6           0        1.086365   -3.392107   -0.438190
     14          6           0        4.341598    0.213047   -0.352527
     15          6           0        0.736012    3.291606    0.606570
     16          7           0       -0.459664   -1.528184   -0.231341
     17          6           0       -1.834547   -1.395853   -0.230853
     18          6           0       -2.414215   -2.704771   -0.476950
     19          6           0       -1.434013   -3.585160   -0.574254
     20          6           0       -0.181638   -2.856354   -0.385035
     21          6           0       -1.497299   -5.113436   -0.811885
     22          6           0       -3.955139   -2.924531   -0.561216
     23          6           0       -4.549534   -3.178120    0.847475
     24          6           0       -6.053472   -3.106719    0.932687
     25          8           0       -6.586405   -3.449749    2.019128
     26          8           0       -6.693297   -2.702060   -0.057804
     27          7           0        2.383633   -1.315745   -0.322869
     28          6           0        2.278889   -2.698120   -0.437836
     29          6           0        3.586049   -3.274901   -0.588205
     30          6           0        4.466710   -2.273378   -0.584226
     31          6           0        3.754952   -1.041904   -0.425214
     32          6           0        3.858985   -4.795998   -0.728660
     33          6           0        6.024239   -2.449625   -0.721721
     34          6           0        6.581937   -2.815249   -1.954284
     35          7           0        2.262186    1.460362    0.079747
     36          6           0        3.635625    1.366373   -0.077661
     37          6           0        4.222408    2.672233    0.140906
     38          6           0        3.226885    3.520363    0.383575
     39          6           0        1.987112    2.772465    0.388451
     40          6           0        5.745513    2.969719    0.076905
     41          6           0        3.398795    5.041595    0.760275
     42          6           0        3.992626    5.892584   -0.111362
     43          7           0       -0.583712    1.226473    0.196148
     44          6           0       -0.451957    2.597621    0.501518
     45          6           0       -1.746246    3.176906    0.652968
     46          6           0       -2.641485    2.207424    0.478892
     47          6           0       -1.943602    0.989472    0.172102
     48          6           0       -2.026241    4.674407    0.973821
     49          6           0       -4.206384    2.349507    0.532670
     50          6           0       -4.720322    2.587285   -0.905065
     51          6           0       -6.172405    2.907730   -1.098575
     52          8           0       -6.585478    2.911998   -2.289814
     53          8           0       -6.882843    3.168567   -0.096734
     54          1           0        1.954399   -1.297283   -3.645691
     55          1           0        0.989969   -2.035158   -2.389314
     56          1           0        0.214756   -1.353575   -3.799122
     57          1           0       -1.222541    2.706755   -3.814562
     58          1           0       -2.060999    2.286195   -2.340390
     59          1           0       -0.390456    2.794899   -2.280635
     60          1           0       -1.437646    0.204114   -2.580241
     61          1           0       -0.629359    0.615307   -4.053857
     62          1           0        3.444890   -0.646331    5.039411
     63          1           0        1.988993   -0.547483    6.000483
     64          1           0        2.492186   -2.081502    5.332165
     65          1           0        3.057796   -0.564171    2.262409
     66          1           0       -0.291605   -0.731686    4.749678
     67          1           0       -1.166164   -0.310117    2.414434
     68          1           0       -6.403641   -4.315690    2.391075
     69          1           0       -4.240981   -4.150003    1.171727
     70          1           0       -4.140698   -2.452826    1.519563
     71          1           0       -4.156960   -3.769300   -1.186144
     72          1           0       -4.412413   -2.055096   -0.985345
     73          1           0       -3.622772   -0.280678   -0.124449
     74          1           0       -4.472307    3.179819    1.152965
     75          1           0       -4.636936    1.452451    0.926135
     76          1           0       -4.153405    3.393591   -1.321449
     77          1           0       -4.505105    1.707391   -1.474599
     78          1           0       -7.213034    4.059772    0.038648
     79          1           0       -0.617376   -5.430298   -1.331726
     80          1           0       -1.556781   -5.618600    0.129481
     81          1           0       -2.361485   -5.347821   -1.397672
     82          1           0       -2.076440    5.231293    0.061539
     83          1           0       -2.956680    4.759514    1.495300
     84          1           0       -1.238037    5.061608    1.585138
     85          1           0        0.676354    4.323843    0.881941
     86          1           0        1.153551   -4.458984   -0.484655
     87          1           0        4.793373   -4.946090   -1.227951
     88          1           0        3.897981   -5.242569    0.242913
     89          1           0        3.073802   -5.248190   -1.297789
     90          1           0        5.395847    0.290723   -0.518131
     91          1           0        5.977349    3.444786   -0.853398
     92          1           0        6.016871    3.616434    0.885004
     93          1           0        6.291584    2.052874    0.155019
     94          1           0        3.046608    5.402133    1.704138
     95          1           0        3.655953    5.678570   -1.104211
     96          1           0        3.736258    6.899837    0.142835
     97          1           0        5.054525    5.771242   -0.060912
     98          1           0        6.657571   -2.290315    0.125870
     99          1           0        5.811351   -3.182147   -2.599639
    100          1           0        7.046490   -1.962017   -2.402711
    101          1           0        7.313785   -3.580745   -1.801593
 ---------------------------------------------------------------------

 SCF Done:  E(RPBE1PBE) =  -3880.49193831     a.u. after    1 cycles

 The electronic state is 1-A.
 Alpha  occ. eigenvalues -- -256.30611 -89.01394 -30.07661 -25.90446 -25.90117
 Alpha  occ. eigenvalues --  -25.90066 -19.26471 -19.25605 -19.18386 -19.17520
 Alpha  occ. eigenvalues --  -14.44650 -14.38703 -14.36744 -14.36731 -14.36548
 Alpha  occ. eigenvalues --  -14.36389 -10.35473 -10.34965 -10.27652 -10.25968
 Alpha  occ. eigenvalues --  -10.24084 -10.24005 -10.23845 -10.23788 -10.23749
 Alpha  occ. eigenvalues --  -10.23737 -10.23623 -10.23599 -10.23385 -10.23322
 Alpha  occ. eigenvalues --  -10.22972 -10.22795 -10.22684 -10.22625 -10.22389
 Alpha  occ. eigenvalues --  -10.22325 -10.22323 -10.21744 -10.21568 -10.21521
 Alpha  occ. eigenvalues --  -10.21497 -10.21467 -10.21466 -10.21419 -10.21386
 Alpha  occ. eigenvalues --  -10.21384 -10.21228 -10.21115 -10.21105 -10.20958
 Alpha  occ. eigenvalues --  -10.20926 -10.20849 -10.20738 -10.20620 -10.20073
 Alpha  occ. eigenvalues --  -10.19825 -10.18960  -7.99191  -5.92839  -5.92563
 Alpha  occ. eigenvalues --   -5.92021  -3.42058  -2.18057  -2.17384  -2.17276
 Alpha  occ. eigenvalues --   -1.16912  -1.16164  -1.06322  -1.03294  -1.01738
 Alpha  occ. eigenvalues --   -0.97119  -0.96218  -0.95759  -0.94921  -0.90681
 Alpha  occ. eigenvalues --   -0.83329  -0.82980  -0.82766  -0.82607  -0.82475
 Alpha  occ. eigenvalues --   -0.81620  -0.81164  -0.80521  -0.80138  -0.78841
 Alpha  occ. eigenvalues --   -0.78399  -0.77797  -0.77401  -0.75709  -0.75097
 Alpha  occ. eigenvalues --   -0.73728  -0.72586  -0.72321  -0.71553  -0.70873
 Alpha  occ. eigenvalues --   -0.69880  -0.69421  -0.68780  -0.66337  -0.66018
 Alpha  occ. eigenvalues --   -0.65876  -0.64812  -0.64702  -0.64579  -0.62237
 Alpha  occ. eigenvalues --   -0.61183  -0.60776  -0.59692  -0.58764  -0.57182
 Alpha  occ. eigenvalues --   -0.56443  -0.55428  -0.54279  -0.54241  -0.53554
 Alpha  occ. eigenvalues --   -0.53087  -0.52133  -0.51697  -0.51667  -0.50821
 Alpha  occ. eigenvalues --   -0.50782  -0.50356  -0.48944  -0.48293  -0.48142
 Alpha  occ. eigenvalues --   -0.48029  -0.47904  -0.47680  -0.47619  -0.47505
 Alpha  occ. eigenvalues --   -0.46413  -0.45819  -0.45494  -0.45340  -0.45035
 Alpha  occ. eigenvalues --   -0.44803  -0.44466  -0.44291  -0.44202  -0.43997
 Alpha  occ. eigenvalues --   -0.43855  -0.43689  -0.43369  -0.43125  -0.43060
 Alpha  occ. eigenvalues --   -0.43018  -0.42868  -0.42618  -0.42407  -0.42254
 Alpha  occ. eigenvalues --   -0.42015  -0.41984  -0.41554  -0.40795  -0.40709
 Alpha  occ. eigenvalues --   -0.40276  -0.40017  -0.39715  -0.39671  -0.39275
 Alpha  occ. eigenvalues --   -0.39183  -0.38810  -0.38625  -0.38496  -0.38119
 Alpha  occ. eigenvalues --   -0.37886  -0.37525  -0.37244  -0.37161  -0.36892
 Alpha  occ. eigenvalues --   -0.36360  -0.36290  -0.35855  -0.35737  -0.35344
 Alpha  occ. eigenvalues --   -0.34991  -0.34593  -0.34136  -0.33809  -0.33279
 Alpha  occ. eigenvalues --   -0.33045  -0.32985  -0.32675  -0.32303  -0.31974
 Alpha  occ. eigenvalues --   -0.31745  -0.31323  -0.30129  -0.29005  -0.28198
 Alpha  occ. eigenvalues --   -0.27843  -0.27797  -0.27176  -0.26185  -0.25172
 Alpha  occ. eigenvalues --   -0.24425  -0.24315  -0.23313  -0.23066  -0.19770
 Alpha  occ. eigenvalues --   -0.18851  -0.18376  -0.18159  -0.18002  -0.12800
 Alpha virt. eigenvalues --   -0.10817  -0.06355  -0.05936  -0.01304  -0.00992
 Alpha virt. eigenvalues --    0.00044   0.01496   0.02398   0.02526   0.02834
 Alpha virt. eigenvalues --    0.03752   0.03928   0.04472   0.04584   0.04884

 Mulliken charges:
               1
     1  C   -0.383812
     2  C    0.169921
     3  N   -0.224653
     4  C   -0.213746
     5  C    0.010491
     6  N    0.049443
     7  C   -0.328823
     8  C   -0.194509
     9  S    0.058524
    10  C   -0.328491
    11  Fe  -0.489967
    12  C   -0.644842
    13  C   -0.526915
    14  C   -0.504027
    15  C   -0.553395
    16  N    0.044218
    17  C    0.275881
    18  C   -0.007485
    19  C   -0.053349
    20  C    0.221856
    21  C   -0.409578
    22  C   -0.302844
    23  C   -0.295758
    24  C    0.325351
    25  O   -0.331105
    26  O   -0.341529
    27  N    0.047369
    28  C    0.206119
    29  C   -0.025495
    30  C    0.026514
    31  C    0.153231
    32  C   -0.391335
    33  C   -0.358100
    34  C   -0.311856
    35  N    0.067928
    36  C    0.317104
    37  C   -0.070794
    38  C    0.016546
    39  C    0.252770
    40  C   -0.414755
    41  C   -0.332420
    42  C   -0.289559
    43  N    0.107083
    44  C    0.299192
    45  C   -0.036327
    46  C    0.038563
    47  C    0.131205
    48  C   -0.416320
    49  C   -0.258899
    50  C   -0.253162
    51  C    0.298764
    52  O   -0.349335
    53  O   -0.353547
    54  H    0.137001
    55  H    0.155011
    56  H    0.135977
    57  H    0.122361
    58  H    0.092750
    59  H    0.138387
    60  H    0.139601
    61  H    0.133728
    62  H    0.148576
    63  H    0.122575
    64  H    0.143084
    65  H    0.156812
    66  H    0.228550
    67  H    0.172143
    68  H    0.346418
    69  H    0.120881
    70  H    0.144879
    71  H    0.121350
    72  H    0.149421
    73  H    0.128712
    74  H    0.096227
    75  H    0.122529
    76  H    0.144212
    77  H    0.143319
    78  H    0.353598
    79  H    0.133872
    80  H    0.133995
    81  H    0.133984
    82  H    0.145766
    83  H    0.122738
    84  H    0.133629
    85  H    0.094727
    86  H    0.104399
    87  H    0.139202
    88  H    0.136000
    89  H    0.126406
    90  H    0.114593
    91  H    0.145130
    92  H    0.137336
    93  H    0.123999
    94  H    0.133471
    95  H    0.141285
    96  H    0.121110
    97  H    0.130304
    98  H    0.134728
    99  H    0.133980
   100  H    0.138746
   101  H    0.121156
 Sum of Mulliken charges =   0.00000

 Dipole moment (field-independent basis, Debye):
    X=              2.6842    Y=             -1.5808    Z=              8.1617  Tot=              8.7360
 Quadrupole moment (field-independent basis, Debye-Ang):
   XX=           -353.2256   YY=           -281.5430   ZZ=           -300.9237
   XY=              0.6490   XZ=            -33.0920   YZ=             -2.5597

 Summary of Natural Population Analysis:

                                       Natural Population
                Natural  -----------------------------------------------
    Atom  No    Charge         Core      Valence    Rydberg      Total
 -----------------------------------------------------------------------
      C    1   -0.63763      1.99939     4.63195    0.00629     6.63763
      C    2    0.09810      1.99914     3.88344    0.01932     5.90190
      N    3   -0.48688      1.99935     5.46696    0.02057     7.48688
      C    4   -0.06816      1.99891     4.05044    0.01881     6.06816
      C    5    0.19063      1.99932     3.79021    0.01985     5.80937
      N    6   -0.31958      1.99937     5.26580    0.05441     7.31958
      C    7   -0.62243      1.99944     4.61068    0.01231     6.62243
      C    8   -0.53639      1.99927     4.51659    0.02053     6.53639
      S    9    0.63734      9.99804     5.32153    0.04309    15.36266
      C   10   -0.75168      1.99928     4.73394    0.01846     6.75168
     Fe   11   -0.19261     17.99014     8.15453    0.04794    26.19261
      C   12   -0.28751      1.99891     4.27036    0.01824     6.28751
      C   13   -0.25154      1.99894     4.23491    0.01768     6.25154
      C   14   -0.24925      1.99894     4.23342    0.01689     6.24925
      C   15   -0.23531      1.99893     4.21899    0.01739     6.23531
      N   16   -0.35682      1.99936     5.31034    0.04713     7.35682
      C   17    0.14247      1.99902     3.83743    0.02107     5.85753
      C   18   -0.04264      1.99865     4.02428    0.01971     6.04264
      C   19   -0.02952      1.99865     4.01298    0.01788     6.02952
      C   20    0.14386      1.99906     3.83531    0.02178     5.85614
      C   21   -0.63497      1.99940     4.62860    0.00697     6.63497
      C   22   -0.41292      1.99936     4.39886    0.01469     6.41292
      C   23   -0.51808      1.99925     4.50154    0.01729     6.51808
      C   24    0.76433      1.99947     3.20171    0.03449     5.23567
      O   25   -0.66512      1.99961     6.63573    0.02978     8.66512
      O   26   -0.56321      1.99978     6.53955    0.02388     8.56321
      N   27   -0.37307      1.99937     5.32824    0.04546     7.37307
      C   28    0.13778      1.99901     3.84195    0.02126     5.86222
      C   29   -0.03572      1.99865     4.01875    0.01832     6.03572
      C   30   -0.09241      1.99859     4.07108    0.02273     6.09241
      C   31    0.14357      1.99899     3.83634    0.02111     5.85643
      C   32   -0.63255      1.99940     4.62543    0.00773     6.63255
      C   33   -0.13454      1.99933     4.11202    0.02319     6.13454
      C   34   -0.68591      1.99934     4.67011    0.01646     6.68591
      N   35   -0.33414      1.99937     5.28731    0.04747     7.33414
      C   36    0.14655      1.99903     3.83326    0.02116     5.85345
      C   37   -0.03608      1.99865     4.01987    0.01756     6.03608
      C   38   -0.09521      1.99859     4.07430    0.02232     6.09521
      C   39    0.15501      1.99902     3.82447    0.02151     5.84499
      C   40   -0.63467      1.99940     4.62754    0.00773     6.63467
      C   41   -0.11380      1.99920     4.08973    0.02487     6.11380
      C   42   -0.69338      1.99925     4.67644    0.01769     6.69338
      N   43   -0.36574      1.99937     5.31907    0.04730     7.36574
      C   44    0.13998      1.99897     3.84012    0.02093     5.86002
      C   45   -0.03420      1.99862     4.01730    0.01827     6.03420
      C   46   -0.04291      1.99864     4.02416    0.02010     6.04291
      C   47    0.13903      1.99901     3.84022    0.02174     5.86097
      C   48   -0.63224      1.99940     4.62572    0.00711     6.63224
      C   49   -0.41801      1.99937     4.40585    0.01279     6.41801
      C   50   -0.51378      1.99924     4.49729    0.01725     6.51378
      C   51    0.76687      1.99945     3.19843    0.03525     5.23313
      O   52   -0.57230      1.99979     6.54978    0.02272     8.57230
      O   53   -0.68318      1.99960     6.65495    0.02864     8.68318
      H   54    0.22453      0.00000     0.77455    0.00093     0.77547
      H   55    0.24379      0.00000     0.75475    0.00146     0.75621
      H   56    0.22078      0.00000     0.77775    0.00147     0.77922
      H   57    0.21076      0.00000     0.78813    0.00110     0.78924
      H   58    0.21659      0.00000     0.78116    0.00225     0.78341
      H   59    0.22382      0.00000     0.77433    0.00185     0.77618
      H   60    0.22058      0.00000     0.77708    0.00234     0.77942
      H   61    0.21521      0.00000     0.78335    0.00143     0.78479
      H   62    0.23435      0.00000     0.76467    0.00099     0.76565
      H   63    0.21335      0.00000     0.78525    0.00140     0.78665
      H   64    0.22147      0.00000     0.77709    0.00144     0.77853
      H   65    0.23642      0.00000     0.76199    0.00159     0.76358
      H   66    0.41245      0.00000     0.58578    0.00177     0.58755
      H   67    0.22517      0.00000     0.77275    0.00208     0.77483
      H   68    0.50709      0.00000     0.49059    0.00232     0.49291
      H   69    0.21248      0.00000     0.78585    0.00168     0.78752
      H   70    0.23420      0.00000     0.76438    0.00142     0.76580
      H   71    0.21965      0.00000     0.77886    0.00149     0.78035
      H   72    0.23286      0.00000     0.76553    0.00160     0.76714
      H   73    0.22209      0.00000     0.77520    0.00271     0.77791
      H   74    0.21236      0.00000     0.78588    0.00176     0.78764
      H   75    0.21260      0.00000     0.78537    0.00203     0.78740
      H   76    0.24164      0.00000     0.75706    0.00130     0.75836
      H   77    0.24132      0.00000     0.75735    0.00134     0.75868
      H   78    0.51808      0.00000     0.47936    0.00256     0.48192
      H   79    0.21864      0.00000     0.77997    0.00139     0.78136
      H   80    0.21530      0.00000     0.78312    0.00158     0.78470
      H   81    0.21814      0.00000     0.78030    0.00156     0.78186
      H   82    0.21937      0.00000     0.77908    0.00155     0.78063
      H   83    0.21294      0.00000     0.78544    0.00162     0.78706
      H   84    0.21795      0.00000     0.78068    0.00137     0.78205
      H   85    0.21888      0.00000     0.77702    0.00410     0.78112
      H   86    0.21599      0.00000     0.78132    0.00268     0.78401
      H   87    0.22074      0.00000     0.77776    0.00149     0.77926
      H   88    0.21861      0.00000     0.77965    0.00173     0.78139
      H   89    0.21347      0.00000     0.78513    0.00140     0.78653
      H   90    0.22358      0.00000     0.77339    0.00303     0.77642
      H   91    0.21753      0.00000     0.78061    0.00186     0.78247
      H   92    0.21755      0.00000     0.78073    0.00171     0.78245
      H   93    0.21524      0.00000     0.78341    0.00135     0.78476
      H   94    0.19315      0.00000     0.80506    0.00180     0.80685
      H   95    0.23087      0.00000     0.76649    0.00264     0.76913
      H   96    0.22361      0.00000     0.77501    0.00138     0.77639
      H   97    0.23121      0.00000     0.76482    0.00397     0.76879
      H   98    0.18991      0.00000     0.80817    0.00192     0.81009
      H   99    0.22186      0.00000     0.77647    0.00168     0.77814
      H  100    0.23231      0.00000     0.76448    0.00320     0.76769
      H  101    0.22009      0.00000     0.77779    0.00212     0.77991
 =======================================================================
   * Total *   -0.00000    129.94566   278.74975    1.30459   410.00000

 Normal termination of Gaussian 16 at Sat Sep  3 04:10:57 2022.
