 Gaussian 16, Revision A.03,
 Gaussian 16:  ES64L-G16RevA.03 25-Dec-2016

 ----------------------------------------------------------------------
 # PBE1PBE/def2TZVP empiricaldispersion=GD3BJ scf=maxcycle=999 geom=che
 ck pop=nbo
 ----------------------------------------------------------------------

 ---------
 1cry_II_Q
 ---------
 Structure from the checkpoint file:  "1cry_II_Q.chk"
 Charge =  0 Multiplicity = 5

                         Standard orientation:
 ---------------------------------------------------------------------
 Center     Atomic      Atomic             Coordinates (Angstroms)
 Number     Number       Type             X           Y           Z
 ---------------------------------------------------------------------
      1          6           0        2.508484   -1.500272    4.973537
      2          6           0        1.730312   -1.104455    3.784603
      3          7           0        0.376573   -1.253928    3.687894
      4          6           0        2.089705   -0.580736    2.600872
      5          6           0       -0.055828   -0.831832    2.524567
      6          7           0        0.978015   -0.412111    1.843546
      7          6           0       -0.716279    3.046624   -2.668771
      8          6           0        0.562144    2.328581   -2.904054
      9         16           0        0.445406    0.661489   -2.146629
     10          6           0        1.427062   -0.284806   -3.317838
     11         26           0        0.876349   -0.093247   -0.001944
     12          6           0       -2.512300   -0.003416    0.034222
     13          6           0        0.779031   -3.425162   -0.689223
     14          6           0        4.257602   -0.067235   -0.612602
     15          6           0        0.991796    3.132095    1.065518
     16          7           0       -0.578127   -1.464092   -0.258625
     17          6           0       -1.940039   -1.229948   -0.247969
     18          6           0       -2.643792   -2.436396   -0.586990
     19          6           0       -1.733325   -3.394129   -0.786043
     20          6           0       -0.436158   -2.798140   -0.586676
     21          6           0       -1.976408   -4.881460   -1.149380
     22          6           0       -4.196557   -2.561188   -0.603618
     23          6           0       -4.649887   -3.362070    0.644156
     24          6           0       -6.109472   -3.620695    0.833856
     25          8           0       -6.821269   -3.435270   -0.194234
     26          8           0       -6.494473   -3.990472    1.988322
     27          7           0        2.238628   -1.434957   -0.646420
     28          6           0        2.013015   -2.805946   -0.684939
     29          6           0        3.276597   -3.498166   -0.740963
     30          6           0        4.233452   -2.573120   -0.746795
     31          6           0        3.608856   -1.274430   -0.686484
     32          6           0        3.381730   -5.038307   -0.807339
     33          6           0        5.776154   -2.835314   -0.820620
     34          6           0        6.231248   -3.046066   -2.097514
     35          7           0        2.337045    1.250590    0.211001
     36          6           0        3.673797    1.063261   -0.064988
     37          6           0        4.378238    2.291862    0.248563
     38          6           0        3.481013    3.178200    0.676564
     39          6           0        2.189273    2.545370    0.682670
     40          6           0        5.901408    2.499531    0.045551
     41          6           0        3.754788    4.647349    1.155890
     42          6           0        3.873093    5.576407    0.166877
     43          7           0       -0.498389    1.295150    0.507306
     44          6           0       -0.274824    2.627649    0.843967
     45          6           0       -1.539937    3.323260    0.897952
     46          6           0       -2.509574    2.449285    0.615634
     47          6           0       -1.869029    1.178571    0.363212
     48          6           0       -1.695203    4.819050    1.235815
     49          6           0       -4.041387    2.636259    0.548715
     50          6           0       -4.708314    2.807495   -0.811968
     51          6           0       -6.097624    3.396124   -0.882576
     52          8           0       -6.419073    3.921893   -1.977235
     53          8           0       -6.828310    3.315588    0.139882
     54          1           0        0.816620   -0.564402   -4.150957
     55          1           0        2.246535    0.311841   -3.660439
     56          1           0        1.802396   -1.165174   -2.839322
     57          1           0       -1.503691    2.336044   -2.527491
     58          1           0       -0.626483    3.657886   -1.795161
     59          1           0       -0.939800    3.663308   -3.514135
     60          1           0        0.733478    2.234478   -3.956046
     61          1           0        1.367574    2.871787   -2.455600
     62          1           0        2.516320   -2.567080    5.055750
     63          1           0        3.512377   -1.142521    4.878078
     64          1           0        2.061239   -1.078338    5.849233
     65          1           0        3.088560   -0.336922    2.304656
     66          1           0       -0.205782   -1.633703    4.406666
     67          1           0       -1.072842   -0.831009    2.192030
     68          1           0       -7.529161   -4.048535   -0.404933
     69          1           0       -4.155473   -4.310562    0.615565
     70          1           0       -4.300484   -2.837135    1.508598
     71          1           0       -4.505643   -3.073800   -1.490520
     72          1           0       -4.634992   -1.585373   -0.582169
     73          1           0       -7.141445    3.554986   -2.492170
     74          1           0       -4.068531    3.426316   -1.405801
     75          1           0       -4.746273    1.842618   -1.272914
     76          1           0       -4.488463    1.785718    1.019463
     77          1           0       -4.284543    3.497706    1.134960
     78          1           0       -3.580733    0.037849   -0.006381
     79          1           0       -2.711711   -4.943759   -1.924202
     80          1           0       -1.061507   -5.319568   -1.489848
     81          1           0       -2.323784   -5.407629   -0.284871
     82          1           0       -2.698153    5.010159    1.555922
     83          1           0       -1.014868    5.080224    2.019289
     84          1           0       -1.480376    5.405164    0.366781
     85          1           0        1.055668    4.066524    1.582879
     86          1           0        2.922857    6.037254   -0.005089
     87          1           0        4.582888    6.321361    0.460366
     88          1           0        4.206469    5.100435   -0.731572
     89          1           0        3.842708    4.902340    2.191337
     90          1           0        6.159523    2.277792   -0.968899
     91          1           0        6.155082    3.515778    0.264161
     92          1           0        6.440685    1.848323    0.701302
     93          1           0        5.254989    0.003540   -0.993537
     94          1           0        7.224186   -3.443131   -2.061279
     95          1           0        5.587371   -3.740519   -2.595568
     96          1           0        6.237144   -2.118927   -2.631628
     97          1           0        6.412037   -2.848696    0.039830
     98          1           0        2.781312   -5.402323   -1.614736
     99          1           0        4.401758   -5.319652   -0.966364
    100          1           0        3.034924   -5.459477    0.113118
    101          1           0        0.770093   -4.491191   -0.780891
 ---------------------------------------------------------------------

 SCF Done:  E(UPBE1PBE) =  -3880.50556868     A.U. after   56 cycles

 Alpha virt. eigenvalues --    1.04456   1.04522   1.04947   1.05067   1.05344
 Alpha virt. eigenvalues --    1.05642   1.06023   1.06316   1.06478   1.06697
 Alpha virt. eigenvalues --    1.06931   1.07301   1.07877   1.08224   1.08363

  Beta  occ. eigenvalues -- -256.29801 -88.99467 -30.04745 -25.88623 -25.87339
  Beta  occ. eigenvalues --  -25.86873 -19.27120 -19.26245 -19.18247 -19.18073
  Beta  occ. eigenvalues --  -14.44168 -14.37181 -14.36572 -14.36448 -14.35916
  Beta  occ. eigenvalues --  -14.35263 -10.35686 -10.35563 -10.27068 -10.25207
  Beta  occ. eigenvalues --  -10.23801 -10.23799 -10.23725 -10.23682 -10.23677
  Beta  occ. eigenvalues --  -10.23652 -10.23565 -10.23517 -10.22842 -10.22721
  Beta  occ. eigenvalues --  -10.22691 -10.22647 -10.22565 -10.22552 -10.21838
  Beta  occ. eigenvalues --  -10.21732 -10.21666 -10.21557 -10.21556 -10.21537
  Beta  occ. eigenvalues --  -10.21419 -10.21384 -10.21363 -10.21265 -10.21241
  Beta  occ. eigenvalues --  -10.21130 -10.21113 -10.21109 -10.21008 -10.20998
  Beta  occ. eigenvalues --  -10.20907 -10.20820 -10.20773 -10.20628 -10.19634
  Beta  occ. eigenvalues --  -10.19363 -10.18882  -7.97426  -5.91104  -5.90807
  Beta  occ. eigenvalues --   -5.90177  -3.37512  -2.15833  -2.11554  -2.10702
  Beta  occ. eigenvalues --   -1.16725  -1.16686  -1.07160  -1.02431  -1.01878
  Beta  occ. eigenvalues --   -0.97001  -0.96158  -0.95742  -0.94899  -0.91087
  Beta  occ. eigenvalues --   -0.83383  -0.82859  -0.82528  -0.82287  -0.81786
  Beta  occ. eigenvalues --   -0.81698  -0.81430  -0.80501  -0.79997  -0.78916
  Beta  occ. eigenvalues --   -0.78517  -0.77685  -0.77315  -0.75691  -0.74900
  Beta  occ. eigenvalues --   -0.73947  -0.72972  -0.72655  -0.71707  -0.70963
  Beta  occ. eigenvalues --   -0.69930  -0.69786  -0.68830  -0.65995  -0.65563
  Beta  occ. eigenvalues --   -0.65139  -0.64726  -0.64688  -0.64082  -0.62265
  Beta  occ. eigenvalues --   -0.60073  -0.59630  -0.59380  -0.58571  -0.57153
  Beta  occ. eigenvalues --   -0.56763  -0.55231  -0.54122  -0.53909  -0.52838
  Beta  occ. eigenvalues --   -0.52196  -0.51867  -0.51668  -0.51381  -0.51082
  Beta  occ. eigenvalues --   -0.50768  -0.50395  -0.49368  -0.48889  -0.48549
  Beta  occ. eigenvalues --   -0.48358  -0.48142  -0.48036  -0.47688  -0.47364
  Beta  occ. eigenvalues --   -0.46111  -0.45876  -0.45319  -0.45168  -0.45045
  Beta  occ. eigenvalues --   -0.44593  -0.44428  -0.44354  -0.43918  -0.43682
  Beta  occ. eigenvalues --   -0.43587  -0.43414  -0.43281  -0.43195  -0.42994
  Beta  occ. eigenvalues --   -0.42880  -0.42737  -0.42530  -0.42334  -0.42144
  Beta  occ. eigenvalues --   -0.41835  -0.41524  -0.41417  -0.40892  -0.40416
  Beta  occ. eigenvalues --   -0.40046  -0.39872  -0.39746  -0.39566  -0.39145
  Beta  occ. eigenvalues --   -0.38934  -0.38619  -0.38512  -0.38496  -0.38195
  Beta  occ. eigenvalues --   -0.37593  -0.37403  -0.37291  -0.37186  -0.37053
  Beta  occ. eigenvalues --   -0.36763  -0.36447  -0.36191  -0.36048  -0.35637
  Beta  occ. eigenvalues --   -0.34979  -0.33985  -0.33775  -0.33368  -0.33338
  Beta  occ. eigenvalues --   -0.33206  -0.32884  -0.32353  -0.32057  -0.32004
  Beta  occ. eigenvalues --   -0.31368  -0.30925  -0.30005  -0.28958  -0.28023
  Beta  occ. eigenvalues --   -0.27765  -0.27497  -0.27180  -0.25536  -0.24682
  Beta  occ. eigenvalues --   -0.24002  -0.23541  -0.22768  -0.21711  -0.18523
  Beta  occ. eigenvalues --   -0.18205  -0.18011  -0.15547
  Beta virt. eigenvalues --   -0.07166  -0.06185  -0.03105  -0.02935  -0.01287
  Beta virt. eigenvalues --   -0.00741  -0.00327   0.00279   0.02243   0.02904
  Beta virt. eigenvalues --    0.03244   0.03369   0.03796   0.04259   0.04557

 Mulliken charges and spin densities:
               1          2
     1  C   -0.385193   0.001929
     2  C    0.188066  -0.002056
     3  N   -0.216606   0.005685
     4  C   -0.229629   0.008490
     5  C    0.019869   0.016466
     6  N    0.060198   0.028053
     7  C   -0.354848   0.000134
     8  C   -0.178686   0.017796
     9  S    0.007748   0.026503
    10  C   -0.382789   0.002578
    11  Fe  -0.318369   1.933053
    12  C   -0.525452   0.005804
    13  C   -0.516724  -0.007649
    14  C   -0.467249  -0.018331
    15  C   -0.464805   0.012218
    16  N    0.021909  -0.028177
    17  C    0.268177   0.001399
    18  C   -0.004485  -0.003093
    19  C   -0.082058   0.001355
    20  C    0.287188   0.000887
    21  C   -0.410749  -0.000518
    22  C   -0.299296   0.000226
    23  C   -0.187217  -0.000432
    24  C    0.277918  -0.000012
    25  O   -0.333528   0.000004
    26  O   -0.376607  -0.000005
    27  N   -0.150971  -0.025219
    28  C    0.278727   0.006321
    29  C   -0.064596   0.042672
    30  C    0.076189  -0.096801
    31  C    0.171036   0.036863
    32  C   -0.403992  -0.001352
    33  C   -0.330380   1.040061
    34  C   -0.302313  -0.077420
    35  N    0.085151  -0.035950
    36  C    0.168224   0.012137
    37  C    0.032824   0.038824
    38  C    0.000611  -0.102115
    39  C    0.134823   0.025792
    40  C   -0.406098  -0.000152
    41  C   -0.295798   1.016972
    42  C   -0.308225  -0.073826
    43  N    0.001007   0.014061
    44  C    0.239771   0.001049
    45  C   -0.048580   0.000793
    46  C    0.041705   0.004158
    47  C    0.276565   0.001956
    48  C   -0.403984   0.000415
    49  C   -0.331701   0.000974
    50  C   -0.221227  -0.000126
    51  C    0.285199  -0.000063
    52  O   -0.344577   0.000009
    53  O   -0.352293   0.000085
    54  H    0.139368   0.000250
    55  H    0.133200   0.000663
    56  H    0.159750   0.000593
    57  H    0.126348  -0.000442
    58  H    0.113893  -0.000075
    59  H    0.116388   0.000311
    60  H    0.125896   0.003779
    61  H    0.121001  -0.001306
    62  H    0.140094  -0.000198
    63  H    0.144978   0.000027
    64  H    0.132124   0.000045
    65  H    0.137812   0.001182
    66  H    0.223948   0.002533
    67  H    0.192074   0.001011
    68  H    0.345595  -0.000009
    69  H    0.123425   0.000041
    70  H    0.133511   0.000116
    71  H    0.113480  -0.000058
    72  H    0.114336   0.000003
    73  H    0.353930  -0.000009
    74  H    0.133555   0.000008
    75  H    0.122166   0.000072
    76  H    0.124955   0.000161
    77  H    0.123038   0.000136
    78  H    0.090734  -0.000931
    79  H    0.135203   0.000038
    80  H    0.129529  -0.000071
    81  H    0.137954   0.000235
    82  H    0.129508   0.000232
    83  H    0.131756   0.000157
    84  H    0.139912   0.000253
    85  H    0.118893   0.002900
    86  H    0.127347   0.086596
    87  H    0.114640   0.023915
    88  H    0.134116   0.017126
    89  H    0.129390  -0.050771
    90  H    0.130223  -0.000171
    91  H    0.139474   0.000687
    92  H    0.138613   0.000613
    93  H    0.122274   0.000494
    94  H    0.110810   0.003909
    95  H    0.130728   0.046593
    96  H    0.126682   0.078193
    97  H    0.136795  -0.053624
    98  H    0.134822   0.000322
    99  H    0.139177   0.000984
   100  H    0.138825   0.000781
   101  H    0.113850   0.000282
 Sum of Mulliken charges =  -0.00000   4.00000

 Dipole moment (field-independent basis, Debye):
    X=              2.2400    Y=             -1.9284    Z=             -2.1375  Tot=              3.6476
 Quadrupole moment (field-independent basis, Debye-Ang):
   XX=           -321.4908   YY=           -311.2362   ZZ=           -301.3091
   XY=              8.8475   XZ=             41.6506   YZ=             -1.3972

 Summary of Natural Population Analysis:

                                       Natural Population
                Natural  -----------------------------------------------
    Atom  No    Charge         Core      Valence    Rydberg      Total
 -----------------------------------------------------------------------
      C    1   -0.31794      0.99969     2.31506    0.00319     3.31794
      C    2    0.04335      0.99953     1.94752    0.00960     2.95665
      N    3   -0.23207      0.99967     2.72219    0.01022     3.73207
      C    4   -0.02399      0.99941     2.01477    0.00981     3.02399
      C    5    0.11378      0.99963     1.87507    0.01151     2.88622
      N    6   -0.15322      0.99963     2.63006    0.02353     3.65322
      C    7   -0.31361      0.99972     2.30775    0.00614     3.31361
      C    8   -0.24870      0.99964     2.23962    0.00944     3.24870
      S    9    0.26479      4.99922     2.71407    0.02193     7.73521
      C   10   -0.36960      0.99964     2.36128    0.00869     3.36960
     Fe   11    0.92643      8.99412     3.05392    0.02552    12.07357
      C   12   -0.11910      0.99948     2.11082    0.00879     3.11910
      C   13   -0.12229      0.99947     2.11414    0.00868     3.12229
      C   14   -0.13275      0.99946     2.12438    0.00891     3.13275
      C   15   -0.11551      0.99948     2.10746    0.00857     3.11551
      N   16   -0.19355      0.99970     2.66771    0.02613     3.69355
      C   17    0.06370      0.99951     1.92556    0.01124     2.93630
      C   18   -0.02115      0.99935     2.01188    0.00993     3.02115
      C   19   -0.01545      0.99935     2.00737    0.00872     3.01545
      C   20    0.06551      0.99951     1.92360    0.01137     2.93449
      C   21   -0.31737      0.99970     2.31410    0.00357     3.31737
      C   22   -0.20677      0.99968     2.20059    0.00649     3.20677
      C   23   -0.25276      0.99962     2.24451    0.00863     3.25276
      C   24    0.38218      0.99972     1.60083    0.01727     2.61782
      O   25   -0.33057      0.99982     3.31724    0.01352     4.33057
      O   26   -0.29817      0.99990     3.28706    0.01121     4.29817
      N   27   -0.20866      0.99971     2.68885    0.02010     3.70866
      C   28    0.07489      0.99951     1.91520    0.01040     2.92511
      C   29    0.00445      0.99933     1.98755    0.00867     2.99555
      C   30   -0.07201      0.99932     2.06211    0.01057     3.07201
      C   31    0.09527      0.99950     1.89504    0.01019     2.90473
      C   32   -0.31900      0.99970     2.31579    0.00351     3.31900
      C   33    0.42770      0.99961     1.56493    0.00776     2.57230
      C   34   -0.36807      0.99965     2.36109    0.00733     3.36807
      N   35   -0.18923      0.99969     2.66374    0.02581     3.68923
      C   36    0.07131      0.99952     1.91827    0.01091     2.92869
      C   37    0.00240      0.99934     1.98983    0.00844     2.99760
      C   38   -0.07381      0.99932     2.06363    0.01087     3.07381
      C   39    0.08261      0.99950     1.90718    0.01071     2.91739
      C   40   -0.31766      0.99970     2.31446    0.00350     3.31766
      C   41    0.42434      0.99959     1.56814    0.00793     2.57566
      C   42   -0.36966      0.99964     2.36247    0.00756     3.36966
      N   43   -0.17951      0.99971     2.65872    0.02108     3.67951
      C   44    0.07060      0.99952     1.91935    0.01053     2.92940
      C   45   -0.01245      0.99936     2.00415    0.00894     3.01245
      C   46   -0.01849      0.99934     2.00954    0.00961     3.01849
      C   47    0.07251      0.99952     1.91776    0.01021     2.92749
      C   48   -0.31651      0.99970     2.31326    0.00355     3.31651
      C   49   -0.20849      0.99966     2.20210    0.00674     3.20849
      C   50   -0.25467      0.99960     2.24666    0.00840     3.25467
      C   51    0.38506      0.99974     1.59759    0.01761     2.61494
      O   52   -0.33773      0.99980     3.32369    0.01423     4.33773
      O   53   -0.29101      0.99990     3.27959    0.01152     4.29101
      H   54    0.10550      0.00000     0.39386    0.00064     0.39450
      H   55    0.10789      0.00000     0.39137    0.00074     0.39211
      H   56    0.12615      0.00000     0.37330    0.00055     0.37385
      H   57    0.11058      0.00000     0.38815    0.00127     0.38942
      H   58    0.10777      0.00000     0.39134    0.00088     0.39223
      H   59    0.10454      0.00000     0.39485    0.00060     0.39546
      H   60    0.10838      0.00000     0.39084    0.00078     0.39162
      H   61    0.10698      0.00000     0.39186    0.00116     0.39302
      H   62    0.11015      0.00000     0.38910    0.00075     0.38985
      H   63    0.11774      0.00000     0.38179    0.00047     0.38226
      H   64    0.10887      0.00000     0.39039    0.00074     0.39113
      H   65    0.11432      0.00000     0.38487    0.00081     0.38568
      H   66    0.20503      0.00000     0.29417    0.00080     0.29497
      H   67    0.11582      0.00000     0.38316    0.00102     0.38418
      H   68    0.25638      0.00000     0.24225    0.00136     0.24362
      H   69    0.11930      0.00000     0.37999    0.00070     0.38070
      H   70    0.11891      0.00000     0.38040    0.00068     0.38109
      H   71    0.10877      0.00000     0.39038    0.00085     0.39123
      H   72    0.10533      0.00000     0.39377    0.00091     0.39467
      H   73    0.25847      0.00000     0.24027    0.00126     0.24153
      H   74    0.11344      0.00000     0.38584    0.00072     0.38656
      H   75    0.11624      0.00000     0.38309    0.00067     0.38376
      H   76    0.10922      0.00000     0.38978    0.00100     0.39078
      H   77    0.11176      0.00000     0.38705    0.00119     0.38824
      H   78    0.10359      0.00000     0.39535    0.00105     0.39641
      H   79    0.10906      0.00000     0.39013    0.00081     0.39094
      H   80    0.10948      0.00000     0.38988    0.00064     0.39052
      H   81    0.10712      0.00000     0.39200    0.00088     0.39288
      H   82    0.10932      0.00000     0.38999    0.00069     0.39068
      H   83    0.10857      0.00000     0.39078    0.00065     0.39143
      H   84    0.10933      0.00000     0.38990    0.00077     0.39067
      H   85    0.10926      0.00000     0.38960    0.00115     0.39074
      H   86    0.15350      0.00000     0.34596    0.00054     0.34650
      H   87    0.12081      0.00000     0.37858    0.00062     0.37919
      H   88    0.11991      0.00000     0.37942    0.00068     0.38009
      H   89    0.07776      0.00000     0.42139    0.00085     0.42224
      H   90    0.10733      0.00000     0.39193    0.00073     0.39267
      H   91    0.11038      0.00000     0.38895    0.00066     0.38962
      H   92    0.10988      0.00000     0.38935    0.00076     0.39012
      H   93    0.11173      0.00000     0.38711    0.00116     0.38827
      H   94    0.10954      0.00000     0.38981    0.00065     0.39046
      H   95    0.13298      0.00000     0.36641    0.00061     0.36702
      H   96    0.14801      0.00000     0.35146    0.00053     0.35199
      H   97    0.07948      0.00000     0.41971    0.00080     0.42052
      H   98    0.10886      0.00000     0.39040    0.00074     0.39114
      H   99    0.11047      0.00000     0.38885    0.00068     0.38953
      H  100    0.11035      0.00000     0.38888    0.00077     0.38965
      H  101    0.10643      0.00000     0.39225    0.00132     0.39357
 =======================================================================
   * Total *    2.00000     64.97215   137.39925    0.62861   203.00000

 Normal termination of Gaussian 16 at Thu Feb  9 00:39:58 2023.
