 Gaussian 16, Revision A.03,

 ----------------------------------------------------------------------
 # PBE1PBE/def2TZVP empiricaldispersion=GD3BJ int=(grid=ultrafine) geom
 =check pop=nbo
 ----------------------------------------------------------------------

 ----------
 2v07_III_D
 ----------
 Structure from the checkpoint file:  "2v07_III_D.chk"
 Charge =  1 Multiplicity = 2

 SCF Done:  E(UPBE1PBE) =  -3880.47640125     A.U. after   62 cycles

 Summary of Natural Population Analysis:

                                       Natural Population
                Natural  -----------------------------------------------
    Atom  No    Charge         Core      Valence    Rydberg      Total
 -----------------------------------------------------------------------
      C    1   -0.32109      0.99969     2.31824    0.00316     3.32109
      C    2    0.06193      0.99956     1.92957    0.00894     2.93807
      N    3   -0.23127      0.99968     2.72169    0.00990     3.73127
      C    4   -0.03340      0.99944     2.02476    0.00920     3.03340
      C    5    0.11325      0.99965     1.87619    0.01091     2.88675
      N    6   -0.18071      0.99967     2.65684    0.02420     3.68071
      C    7   -0.30467      0.99972     2.29904    0.00591     3.30467
      C    8   -0.27791      0.99969     2.26834    0.00988     3.27791
      S    9    0.30505      4.99929     2.67526    0.02039     7.69495
      C   10   -0.37753      0.99965     2.36843    0.00946     3.37753
     Fe   11    0.62550      8.99570     3.35246    0.02634    12.37450
      C   12   -0.13195      0.99944     2.12369    0.00883     3.13195
      C   13   -0.12479      0.99945     2.11689    0.00845     3.12479
      C   14   -0.12068      0.99944     2.11264    0.00860     3.12068
      C   15   -0.10982      0.99943     2.10180    0.00860     3.10982
      N   16   -0.20498      0.99968     2.68244    0.02286     3.70498
      C   17    0.08466      0.99950     1.90537    0.01047     2.91534
      C   18   -0.01079      0.99938     2.00212    0.00929     3.01079
      C   19    0.00405      0.99939     1.98854    0.00802     2.99595
      C   20    0.08205      0.99950     1.90794    0.01051     2.91795
      C   21   -0.31927      0.99970     2.31593    0.00365     3.31927
      C   22   -0.21357      0.99969     2.20693    0.00695     3.21357
      C   23   -0.24649      0.99964     2.23831    0.00854     3.24649
      C   24    0.37758      0.99977     1.60503    0.01763     2.62242
      O   25   -0.32304      0.99981     3.31024    0.01299     4.32304
      O   26   -0.30555      0.99991     3.29439    0.01126     4.30555
      N   27   -0.22034      0.99967     2.69550    0.02517     3.72034
      C   28    0.08151      0.99952     1.90861    0.01036     2.91849
      C   29   -0.00431      0.99939     1.99687    0.00804     3.00431
      C   30   -0.00759      0.99940     1.99845    0.00974     3.00759
      C   31    0.07947      0.99950     1.91039    0.01064     2.92053
      C   32   -0.32056      0.99970     2.31717    0.00370     3.32056
      C   33   -0.21316      0.99959     2.20539    0.00817     3.21316
      C   34   -0.29971      0.99963     2.29248    0.00760     3.29971
      N   35   -0.19696      0.99966     2.67386    0.02344     3.69696
      C   36    0.08557      0.99951     1.90434    0.01058     2.91443
      C   37    0.00316      0.99941     1.98919    0.00824     2.99684
      C   38   -0.02720      0.99936     2.01725    0.01059     3.02720
      C   39    0.08603      0.99951     1.90422    0.01024     2.91397
      C   40   -0.32279      0.99970     2.31950    0.00360     3.32279
      C   41   -0.10831      0.99959     2.09969    0.00902     3.10831
      C   42   -0.17647      0.99962     2.16909    0.00775     3.17647
      N   43   -0.22233      0.99969     2.69871    0.02393     3.72233
      C   44    0.06233      0.99945     1.92805    0.01017     2.93767
      C   45    0.01754      0.99958     1.97481    0.00807     2.98246
      C   46   -0.00788      0.99955     1.99981    0.00851     3.00788
      C   47    0.06683      0.99946     1.92274    0.01097     2.93317
      C   48   -0.32528      0.99968     2.32184    0.00376     3.32528
      C   49   -0.21787      0.99967     2.21125    0.00695     3.21787
      C   50   -0.24359      0.99964     2.23575    0.00820     3.24359
      C   51    0.37810      0.99978     1.60325    0.01887     2.62190
      O   52   -0.30057      0.99989     3.28833    0.01235     4.30057
      O   53   -0.32579      0.99979     3.31225    0.01375     4.32579
      H   54    0.12062      0.00000     0.37888    0.00049     0.37938
      H   55    0.11270      0.00000     0.38671    0.00059     0.38730
      H   56    0.11847      0.00000     0.38092    0.00061     0.38153
      H   57    0.12025      0.00000     0.37891    0.00084     0.37975
      H   58    0.11715      0.00000     0.38198    0.00087     0.38285
      H   59    0.11404      0.00000     0.38534    0.00062     0.38596
      H   60    0.11221      0.00000     0.38673    0.00106     0.38779
      H   61    0.10838      0.00000     0.39102    0.00060     0.39162
      H   62    0.11961      0.00000     0.37949    0.00091     0.38039
      H   63    0.11357      0.00000     0.38518    0.00125     0.38643
      H   64    0.12887      0.00000     0.37048    0.00064     0.37113
      H   65    0.11730      0.00000     0.38211    0.00059     0.38270
      H   66    0.11422      0.00000     0.38492    0.00086     0.38578
      H   67    0.11180      0.00000     0.38699    0.00121     0.38820
      H   68    0.11552      0.00000     0.38311    0.00137     0.38448
      H   69    0.11627      0.00000     0.38233    0.00140     0.38373
      H   70    0.11663      0.00000     0.38209    0.00128     0.38337
      H   71    0.10969      0.00000     0.38975    0.00056     0.39031
      H   72    0.11566      0.00000     0.38363    0.00070     0.38434
      H   73    0.11472      0.00000     0.38459    0.00069     0.38528
      H   74    0.11536      0.00000     0.38385    0.00079     0.38464
      H   75    0.11327      0.00000     0.38580    0.00093     0.38673
      H   76    0.11784      0.00000     0.38143    0.00074     0.38216
      H   77    0.12316      0.00000     0.37608    0.00077     0.37684
      H   78    0.11360      0.00000     0.38567    0.00073     0.38640
      H   79    0.11415      0.00000     0.38516    0.00068     0.38585
      H   80    0.11367      0.00000     0.38562    0.00071     0.38633
      H   81    0.11026      0.00000     0.38873    0.00101     0.38974
      H   82    0.10417      0.00000     0.39511    0.00071     0.39583
      H   83    0.11048      0.00000     0.38895    0.00057     0.38952
      H   84    0.11930      0.00000     0.37997    0.00073     0.38070
      H   85    0.11327      0.00000     0.38600    0.00072     0.38673
      H   86    0.11205      0.00000     0.38727    0.00069     0.38795
      H   87    0.10676      0.00000     0.39244    0.00080     0.39324
      H   88    0.10013      0.00000     0.39910    0.00077     0.39987
      H   89    0.10591      0.00000     0.39348    0.00061     0.39409
      H   90    0.11289      0.00000     0.38648    0.00062     0.38711
      H   91    0.11526      0.00000     0.38405    0.00069     0.38474
      H   92    0.11828      0.00000     0.38102    0.00070     0.38172
      H   93    0.11593      0.00000     0.38285    0.00122     0.38407
      H   94    0.10795      0.00000     0.39091    0.00114     0.39205
      H   95    0.11924      0.00000     0.37994    0.00082     0.38076
      H   96    0.12104      0.00000     0.37822    0.00074     0.37896
      H   97    0.26023      0.00000     0.23836    0.00141     0.23977
      H   98    0.25957      0.00000     0.23901    0.00142     0.24043
      H   99    0.21386      0.00000     0.28539    0.00075     0.28614
      H  100    0.10405      0.00000     0.39523    0.00071     0.39595
      H  101    0.10425      0.00000     0.39502    0.00073     0.39575
 =======================================================================
   * Total *    1.00000     64.97440   138.39818    0.62741   204.00000

 Normal termination of Gaussian 16 at Tue Sep 20 01:36:03 2022.
 Gaussian 16:  ES64L-G16RevA.03 25-Dec-2016

 ----------------------------------------------------------------------
 # PBE1PBE/def2TZVP empiricaldispersion=GD3BJ int=(grid=ultrafine) geom
 =check guess=read scrf=(smd,solvent=Chloroform)
 ----------------------------------------------------------------------

 ---------------
 2v07_III_D_solv
 ---------------
 Structure from the checkpoint file:  "2v07_III_D.chk"
 Charge =  1 Multiplicity = 2

                         Standard orientation:
 ---------------------------------------------------------------------
 Center     Atomic      Atomic             Coordinates (Angstroms)
 Number     Number       Type             X           Y           Z
 ---------------------------------------------------------------------
      1          6           0        2.644068   -1.585285    4.965724
      2          6           0        1.804293   -1.106549    3.817534
      3          7           0        0.450037   -0.912954    3.939492
      4          6           0        2.113948   -0.809797    2.528619
      5          6           0       -0.047469   -0.508556    2.777320
      6          7           0        0.936052   -0.458039    1.896003
      7          6           0       -1.329303    2.201808   -2.798114
      8          6           0       -0.605716    0.915390   -3.196431
      9         16           0        0.897720    0.643730   -2.311130
     10          6           0        1.705736   -0.598781   -3.268844
     11         26           0        0.842731    0.013503   -0.052691
     12          6           0       -2.570892   -0.407909   -0.089486
     13          6           0        1.249349   -3.302958   -0.710999
     14          6           0        4.226438    0.497914   -0.356674
     15          6           0        0.480902    3.215656    0.920391
     16          7           0       -0.413346   -1.538952   -0.366911
     17          6           0       -1.798622   -1.515922   -0.288706
     18          6           0       -2.295121   -2.869238   -0.451881
     19          6           0       -1.238941   -3.665821   -0.651600
     20          6           0       -0.026030   -2.849501   -0.596511
     21          6           0       -1.246718   -5.185369   -0.873209
     22          6           0       -3.788045   -3.235694   -0.376122
     23          6           0       -4.226518   -3.183248    1.093120
     24          6           0       -5.717942   -3.365306    1.294438
     25          8           0       -6.479116   -3.171864    0.312809
     26          8           0       -6.158246   -3.663263    2.459937
     27          7           0        2.445694   -1.157446   -0.448377
     28          6           0        2.389319   -2.514355   -0.655359
     29          6           0        3.734335   -2.991000   -0.873586
     30          6           0        4.565420   -1.938615   -0.785959
     31          6           0        3.756926   -0.770200   -0.530629
     32          6           0        4.046720   -4.466222   -1.153722
     33          6           0        6.078420   -1.877185   -1.008381
     34          6           0        6.451217   -2.285307   -2.261389
     35          7           0        2.130786    1.564584    0.224037
     36          6           0        3.477771    1.553847    0.056604
     37          6           0        3.986951    2.858384    0.444458
     38          6           0        2.949098    3.625170    0.803520
     39          6           0        1.755175    2.812600    0.659559
     40          6           0        5.455909    3.246796    0.420270
     41          6           0        2.969159    5.070415    1.310713
     42          6           0        3.634288    6.048084    0.668069
     43          7           0       -0.752837    1.181739    0.346733
     44          6           0       -0.651642    2.528218    0.673649
     45          6           0       -1.977284    3.126731    0.721598
     46          6           0       -2.907700    2.010105    0.385728
     47          6           0       -2.092408    0.849306    0.182941
     48          6           0       -2.343145    4.590747    1.008413
     49          6           0       -4.424344    2.153149    0.281205
     50          6           0       -4.740876    2.627023   -1.143523
     51          6           0       -6.233377    2.835802   -1.369524
     52          8           0       -6.659902    3.033099   -2.523895
     53          8           0       -7.012893    2.828326   -0.407810
     54          1           0        3.403046   -2.245725    4.601482
     55          1           0        2.025759   -2.105027    5.667480
     56          1           0        3.102074   -0.746391    5.446753
     57          1           0        3.087463   -0.842226    2.085767
     58          1           0       -1.071642   -0.264687    2.586278
     59          1           0       -2.299993    2.218958   -3.247964
     60          1           0       -1.428877    2.239999   -1.733442
     61          1           0       -0.765487    3.046848   -3.134147
     62          1           0       -0.323174    1.043681   -4.220448
     63          1           0       -1.258166    0.114415   -2.917776
     64          1           0        2.543967   -0.980154   -2.724028
     65          1           0        2.043064   -0.174772   -4.191517
     66          1           0        1.020123   -1.394824   -3.471703
     67          1           0       -3.632255   -0.529095   -0.150504
     68          1           0        1.385829   -4.354275   -0.855935
     69          1           0        5.261771    0.674841   -0.560838
     70          1           0        0.366733    4.180443    1.368780
     71          1           0       -0.259745   -5.514398   -1.123258
     72          1           0       -1.916072   -5.425802   -1.672619
     73          1           0       -1.569756   -5.674692    0.021838
     74          1           0       -3.876689   -4.253883   -0.692876
     75          1           0       -4.325423   -2.466637   -0.890591
     76          1           0       -4.005513   -2.191516    1.428567
     77          1           0       -3.763266   -4.023743    1.566265
     78          1           0        5.101832   -4.589210   -1.282221
     79          1           0        3.540547   -4.775087   -2.044391
     80          1           0        3.715714   -5.063550   -0.329990
     81          1           0        6.558085   -2.503650   -0.285634
     82          1           0        5.667241   -2.066180   -2.955842
     83          1           0        7.341688   -1.769406   -2.554320
     84          1           0        5.555984    4.279930    0.680115
     85          1           0        5.994789    2.648066    1.124565
     86          1           0        5.851273    3.085880   -0.560899
     87          1           0        2.436041    5.310923    2.206727
     88          1           0        4.173416    5.827746   -0.229535
     89          1           0        3.623975    7.045723    1.054734
     90          1           0       -3.404559    4.679754    1.110290
     91          1           0       -1.870169    4.905531    1.915112
     92          1           0       -2.009565    5.206775    0.199628
     93          1           0       -4.715609    2.937406    0.948293
     94          1           0       -4.843412    1.174703    0.390401
     95          1           0       -4.450448    1.828559   -1.793913
     96          1           0       -4.287193    3.590853   -1.244034
     97          1           0       -7.922515    2.546541   -0.529406
     98          1           0       -7.411938   -3.388907    0.378647
     99          1           0       -0.079852   -1.054898    4.775595
    100          1           0        6.635988   -3.339199   -2.252979
    101          1           0        6.406854   -0.869274   -0.862967
 ---------------------------------------------------------------------

 SCF Done:  E(UPBE1PBE) =  -3880.57843097     A.U. after   39 cycles

 Alpha virt. eigenvalues --    1.02973   1.03124   1.03240   1.03669   1.03728
 Alpha virt. eigenvalues --    1.04121   1.04353   1.04790   1.04875   1.05485
 Alpha virt. eigenvalues --    1.05643   1.05930   1.06314   1.06461   1.06687

  Beta  occ. eigenvalues -- -256.42937 -89.06241 -30.19341 -26.02334 -26.02176
  Beta  occ. eigenvalues --  -26.01549 -19.28387 -19.27325 -19.19189 -19.18613
  Beta  occ. eigenvalues --  -14.46664 -14.43327 -14.41470 -14.41228 -14.41124
  Beta  occ. eigenvalues --  -14.41067 -10.37278 -10.36278 -10.30946 -10.28328
  Beta  occ. eigenvalues --  -10.28137 -10.28063 -10.28037 -10.27817 -10.27689
  Beta  occ. eigenvalues --  -10.27657 -10.27640 -10.27589 -10.26496 -10.26310
  Beta  occ. eigenvalues --  -10.26031 -10.25947 -10.25189 -10.25106 -10.25092
  Beta  occ. eigenvalues --  -10.24961 -10.24871 -10.24815 -10.24670 -10.24661
  Beta  occ. eigenvalues --  -10.24652 -10.24587 -10.24383 -10.24363 -10.24358
  Beta  occ. eigenvalues --  -10.24243 -10.24229 -10.24215 -10.23389 -10.23104
  Beta  occ. eigenvalues --  -10.22995 -10.22704 -10.22523 -10.22076 -10.21772
  Beta  occ. eigenvalues --  -10.21756 -10.19648  -8.04180  -5.97777  -5.97538
  Beta  occ. eigenvalues --   -5.97080  -3.51644  -2.26902  -2.26818  -2.26467
  Beta  occ. eigenvalues --   -1.18722  -1.18203  -1.09041  -1.03551  -1.02593
  Beta  occ. eigenvalues --   -1.01640  -1.00562  -1.00125  -0.98801  -0.93780
  Beta  occ. eigenvalues --   -0.87873  -0.87520  -0.86290  -0.85979  -0.85477
  Beta  occ. eigenvalues --   -0.84870  -0.84366  -0.84105  -0.83039  -0.81505
  Beta  occ. eigenvalues --   -0.80938  -0.80265  -0.79440  -0.79271  -0.79156
  Beta  occ. eigenvalues --   -0.76829  -0.74671  -0.74352  -0.74252  -0.73528
  Beta  occ. eigenvalues --   -0.71856  -0.71455  -0.70899  -0.69820  -0.69203
  Beta  occ. eigenvalues --   -0.68574  -0.67004  -0.66739  -0.66576  -0.64683
  Beta  occ. eigenvalues --   -0.64497  -0.63029  -0.62498  -0.62491  -0.61400
  Beta  occ. eigenvalues --   -0.58938  -0.58601  -0.57786  -0.57368  -0.56358
  Beta  occ. eigenvalues --   -0.55347  -0.54991  -0.54609  -0.53341  -0.53161
  Beta  occ. eigenvalues --   -0.52785  -0.52647  -0.52053  -0.51881  -0.51341
  Beta  occ. eigenvalues --   -0.50970  -0.50889  -0.50473  -0.50263  -0.50117
  Beta  occ. eigenvalues --   -0.49762  -0.49023  -0.48879  -0.48243  -0.48106
  Beta  occ. eigenvalues --   -0.47891  -0.47607  -0.47304  -0.46967  -0.46834
  Beta  occ. eigenvalues --   -0.46552  -0.46253  -0.46036  -0.45840  -0.45477
  Beta  occ. eigenvalues --   -0.45425  -0.45119  -0.44737  -0.44551  -0.44274
  Beta  occ. eigenvalues --   -0.43881  -0.43802  -0.43465  -0.43400  -0.43016
  Beta  occ. eigenvalues --   -0.42809  -0.42739  -0.42529  -0.42331  -0.42050
  Beta  occ. eigenvalues --   -0.41536  -0.41240  -0.41120  -0.40726  -0.40598
  Beta  occ. eigenvalues --   -0.40272  -0.39943  -0.39854  -0.39673  -0.39519
  Beta  occ. eigenvalues --   -0.39488  -0.39346  -0.38951  -0.38629  -0.38438
  Beta  occ. eigenvalues --   -0.38316  -0.37281  -0.37117  -0.36791  -0.36401
  Beta  occ. eigenvalues --   -0.36028  -0.35971  -0.35174  -0.35034  -0.34791
  Beta  occ. eigenvalues --   -0.33966  -0.33668  -0.33522  -0.33199  -0.32216
  Beta  occ. eigenvalues --   -0.31716  -0.31452  -0.30070  -0.29576  -0.29427
  Beta  occ. eigenvalues --   -0.29198  -0.28463  -0.27101  -0.26497  -0.26236
  Beta  occ. eigenvalues --   -0.25955  -0.24603  -0.22642  -0.22196
  Beta virt. eigenvalues --   -0.12102  -0.10323  -0.08299  -0.06162  -0.04071
  Beta virt. eigenvalues --   -0.03260  -0.01402  -0.00722  -0.00308  -0.00011
  Beta virt. eigenvalues --    0.00942   0.01527   0.01780   0.02307   0.02446

 Mulliken charges and spin densities:
               1          2
     1  C   -0.394218  -0.000338
     2  C    0.138556  -0.000142
     3  N   -0.188976   0.004052
     4  C   -0.219256   0.001872
     5  C    0.014634   0.016083
     6  N    0.064402  -0.045868
     7  C   -0.359865  -0.000145
     8  C   -0.163187   0.000283
     9  S    0.044703  -0.037323
    10  C   -0.356927   0.005504
    11  Fe  -0.342297   1.153227
    12  C   -0.705600  -0.005137
    13  C   -0.558137  -0.007282
    14  C   -0.485970  -0.002161
    15  C   -0.519088  -0.004374
    16  N    0.056938  -0.041424
    17  C    0.281472   0.008922
    18  C    0.008030  -0.001976
    19  C   -0.103360   0.012368
    20  C    0.323659   0.004484
    21  C   -0.438892  -0.000723
    22  C   -0.273960  -0.000798
    23  C   -0.166241   0.000076
    24  C    0.267899  -0.000011
    25  O   -0.325967  -0.000001
    26  O   -0.458238   0.000002
    27  N   -0.024630  -0.034698
    28  C    0.256617   0.002982
    29  C   -0.049847   0.009731
    30  C   -0.062315  -0.003755
    31  C    0.221345   0.007256
    32  C   -0.417108  -0.000749
    33  C   -0.151197  -0.000297
    34  C   -0.388745  -0.000090
    35  N    0.057269  -0.039581
    36  C    0.177167   0.006924
    37  C   -0.040409  -0.002893
    38  C    0.013244   0.010813
    39  C    0.261585   0.003375
    40  C   -0.407675  -0.000576
    41  C   -0.293792  -0.002416
    42  C   -0.304052   0.002865
    43  N   -0.016417  -0.035580
    44  C    0.302328   0.000728
    45  C   -0.077997   0.022213
    46  C    0.078627  -0.008692
    47  C    0.249546   0.007996
    48  C   -0.426605  -0.001455
    49  C   -0.325535  -0.000297
    50  C   -0.154333  -0.000228
    51  C    0.256501  -0.000068
    52  O   -0.429443  -0.000048
    53  O   -0.326910   0.000003
    54  H    0.163051   0.000045
    55  H    0.151901  -0.000075
    56  H    0.162605   0.000101
    57  H    0.181956  -0.000330
    58  H    0.202762  -0.000901
    59  H    0.148933  -0.000023
    60  H    0.101137   0.000507
    61  H    0.135663   0.000016
    62  H    0.166232  -0.001684
    63  H    0.139082  -0.000427
    64  H    0.173317  -0.000360
    65  H    0.181750  -0.002300
    66  H    0.159483  -0.000016
    67  H    0.158815   0.000162
    68  H    0.162604   0.000162
    69  H    0.158883   0.000090
    70  H    0.153291   0.000087
    71  H    0.146424  -0.000004
    72  H    0.160417   0.000384
    73  H    0.158888   0.000490
    74  H    0.145173  -0.000061
    75  H    0.135024   0.000019
    76  H    0.151220   0.000001
    77  H    0.152411  -0.000003
    78  H    0.153101  -0.000046
    79  H    0.156921   0.000399
    80  H    0.155213   0.000434
    81  H    0.125362  -0.000148
    82  H    0.126346  -0.000001
    83  H    0.133119  -0.000007
    84  H    0.158754  -0.000134
    85  H    0.155817   0.000029
    86  H    0.152084  -0.000010
    87  H    0.154613   0.000293
    88  H    0.169142  -0.000125
    89  H    0.162286  -0.000092
    90  H    0.151455   0.000012
    91  H    0.158504   0.000677
    92  H    0.167657   0.000976
    93  H    0.145171  -0.000127
    94  H    0.125368  -0.000091
    95  H    0.144246   0.000011
    96  H    0.152777  -0.000009
    97  H    0.383564  -0.000005
    98  H    0.378095  -0.000000
    99  H    0.285139  -0.000517
   100  H    0.124530   0.000006
   101  H    0.112382  -0.000042
 Sum of Mulliken charges =   1.00000   1.00000

 Dipole moment (field-independent basis, Debye):
    X=              4.0734    Y=             -3.1097    Z=              3.2937  Tot=              6.0919
 Quadrupole moment (field-independent basis, Debye-Ang):
   XX=           -251.2406   YY=           -276.0980   ZZ=           -289.2761
   XY=             -0.7661   XZ=             -0.7607   YZ=             22.6701

 Normal termination of Gaussian 16 at Tue Sep 20 20:45:13 2022.
