 Gaussian 16, Revision A.03,

 ----------------------------------------------------------------------
 # PBE1PBE/def2TZVP empiricaldispersion=GD3BJ int=(grid=ultrafine) geom
 =check pop=nbo
 ----------------------------------------------------------------------

 ----------
 2v07_III_H
 ----------
 Structure from the checkpoint file:  "2v07_III_H.chk"
 Charge =  1 Multiplicity = 6

 SCF Done:  E(UPBE1PBE) =  -3880.46236332     A.U. after   31 cycles

 Summary of Natural Population Analysis:

                                       Natural Population
                Natural  -----------------------------------------------
    Atom  No    Charge         Core      Valence    Rydberg      Total
 -----------------------------------------------------------------------
      C    1   -0.32101      0.99970     2.31790    0.00341     3.32101
      C    2    0.06698      0.99955     1.92469    0.00879     2.93302
      N    3   -0.22941      0.99968     2.72020    0.00953     3.72941
      C    4   -0.03177      0.99942     2.02354    0.00881     3.03177
      C    5    0.11388      0.99962     1.87576    0.01074     2.88612
      N    6   -0.16104      0.99969     2.63855    0.02279     3.66104
      C    7   -0.30354      0.99971     2.29763    0.00619     3.30354
      C    8   -0.27044      0.99969     2.25931    0.01144     3.27044
      S    9    0.35535      4.99902     2.62306    0.02257     7.64465
      C   10   -0.37549      0.99965     2.36534    0.01051     3.37549
     Fe   11    2.27731      8.99573     1.67725    0.04972    10.72269
      C   12   -0.12954      0.99944     2.12163    0.00847     3.12954
      C   13   -0.12381      0.99945     2.11642    0.00793     3.12381
      C   14   -0.11320      0.99930     2.10478    0.00912     3.11320
      C   15   -0.11021      0.99943     2.10266    0.00812     3.11021
      N   16   -0.18296      0.99970     2.66213    0.02113     3.68296
      C   17    0.08846      0.99948     1.90193    0.01013     2.91154
      C   18   -0.00234      0.99938     1.99351    0.00944     3.00234
      C   19    0.01271      0.99923     1.97752    0.01054     2.98729
      C   20    0.09148      0.99949     1.89810    0.01093     2.90852
      C   21   -0.31976      0.99970     2.31647    0.00358     3.31976
      C   22   -0.21362      0.99969     2.20700    0.00693     3.21362
      C   23   -0.24612      0.99964     2.23796    0.00852     3.24612
      C   24    0.37758      0.99977     1.60503    0.01762     2.62242
      O   25   -0.32305      0.99981     3.31025    0.01298     4.32305
      O   26   -0.30529      0.99991     3.29413    0.01126     4.30529
      N   27   -0.19554      0.99969     2.67478    0.02106     3.69554
      C   28    0.09574      0.99951     1.89482    0.00993     2.90426
      C   29   -0.00318      0.99939     1.99555    0.00824     3.00318
      C   30    0.01452      0.99925     1.97429    0.01194     2.98548
      C   31    0.07849      0.99950     1.91135    0.01066     2.92151
      C   32   -0.32044      0.99970     2.31712    0.00363     3.32044
      C   33   -0.21426      0.99960     2.20683    0.00783     3.21426
      C   34   -0.29953      0.99963     2.29232    0.00758     3.29953
      N   35   -0.17661      0.99969     2.65574    0.02118     3.67661
      C   36    0.08685      0.99950     1.90318    0.01047     2.91315
      C   37    0.01536      0.99940     1.97715    0.00809     2.98464
      C   38   -0.02604      0.99936     2.01618    0.01051     3.02604
      C   39    0.09883      0.99949     1.89163    0.01005     2.90117
      C   40   -0.32305      0.99970     2.31974    0.00361     3.32305
      C   41   -0.10837      0.99959     2.09976    0.00902     3.10837
      C   42   -0.17584      0.99962     2.16850    0.00771     3.17584
      N   43   -0.19027      0.99970     2.67007    0.02049     3.69027
      C   44    0.07194      0.99944     1.91773    0.01089     2.92806
      C   45    0.02979      0.99944     1.96097    0.00979     2.97021
      C   46    0.01336      0.99955     1.97823    0.00885     2.98664
      C   47    0.06983      0.99945     1.92050    0.01022     2.93017
      C   48   -0.32651      0.99969     2.32294    0.00388     3.32651
      C   49   -0.21864      0.99967     2.21201    0.00696     3.21864
      C   50   -0.24270      0.99964     2.23485    0.00821     3.24270
      C   51    0.37818      0.99978     1.60320    0.01884     2.62182
      O   52   -0.29974      0.99989     3.28750    0.01235     4.29974
      O   53   -0.32580      0.99979     3.31227    0.01374     4.32580
      H   54    0.12027      0.00000     0.37919    0.00054     0.37973
      H   55    0.11266      0.00000     0.38673    0.00062     0.38734
      H   56    0.11822      0.00000     0.38111    0.00068     0.38178
      H   57    0.12071      0.00000     0.37851    0.00078     0.37929
      H   58    0.11710      0.00000     0.38207    0.00083     0.38290
      H   59    0.11376      0.00000     0.38564    0.00060     0.38624
      H   60    0.11022      0.00000     0.38873    0.00105     0.38978
      H   61    0.10849      0.00000     0.39090    0.00061     0.39151
      H   62    0.12189      0.00000     0.37732    0.00079     0.37811
      H   63    0.11264      0.00000     0.38601    0.00135     0.38736
      H   64    0.12725      0.00000     0.37214    0.00060     0.37275
      H   65    0.11896      0.00000     0.38048    0.00056     0.38104
      H   66    0.11382      0.00000     0.38533    0.00085     0.38618
      H   67    0.11270      0.00000     0.38614    0.00116     0.38730
      H   68    0.11649      0.00000     0.38216    0.00135     0.38351
      H   69    0.11686      0.00000     0.38175    0.00139     0.38314
      H   70    0.11767      0.00000     0.38108    0.00125     0.38233
      H   71    0.10964      0.00000     0.38981    0.00055     0.39036
      H   72    0.11574      0.00000     0.38356    0.00070     0.38426
      H   73    0.11472      0.00000     0.38459    0.00069     0.38528
      H   74    0.11559      0.00000     0.38362    0.00079     0.38441
      H   75    0.11352      0.00000     0.38557    0.00092     0.38648
      H   76    0.11781      0.00000     0.38146    0.00073     0.38219
      H   77    0.12323      0.00000     0.37600    0.00076     0.37677
      H   78    0.11377      0.00000     0.38551    0.00073     0.38623
      H   79    0.11451      0.00000     0.38482    0.00067     0.38549
      H   80    0.11394      0.00000     0.38536    0.00070     0.38606
      H   81    0.11087      0.00000     0.38813    0.00100     0.38913
      H   82    0.10442      0.00000     0.39487    0.00070     0.39558
      H   83    0.11087      0.00000     0.38858    0.00056     0.38913
      H   84    0.11949      0.00000     0.37979    0.00072     0.38051
      H   85    0.11376      0.00000     0.38552    0.00071     0.38624
      H   86    0.11256      0.00000     0.38676    0.00067     0.38744
      H   87    0.10672      0.00000     0.39248    0.00080     0.39328
      H   88    0.10016      0.00000     0.39908    0.00076     0.39984
      H   89    0.10597      0.00000     0.39342    0.00061     0.39403
      H   90    0.11304      0.00000     0.38631    0.00064     0.38696
      H   91    0.11565      0.00000     0.38364    0.00070     0.38435
      H   92    0.11877      0.00000     0.38050    0.00072     0.38123
      H   93    0.11654      0.00000     0.38224    0.00122     0.38346
      H   94    0.10855      0.00000     0.39036    0.00109     0.39145
      H   95    0.11963      0.00000     0.37954    0.00083     0.38037
      H   96    0.12113      0.00000     0.37814    0.00073     0.37887
      H   97    0.26037      0.00000     0.23823    0.00140     0.23963
      H   98    0.25962      0.00000     0.23896    0.00141     0.24038
      H   99    0.21363      0.00000     0.28558    0.00079     0.28637
      H  100    0.10413      0.00000     0.39516    0.00071     0.39587
      H  101    0.10445      0.00000     0.39482    0.00073     0.39555
 =======================================================================
   * Total *    3.00006     64.97354   136.37969    0.64671   201.99994

 Normal termination of Gaussian 16 at Fri Oct  7 08:38:07 2022.
 Gaussian 16:  ES64L-G16RevA.03 25-Dec-2016

 ----------------------------------------------------------------------
 # PBE1PBE/def2TZVP empiricaldispersion=GD3BJ int=(grid=ultrafine) geom
 =check guess=read scrf=(smd,solvent=Chloroform)
 ----------------------------------------------------------------------

 ---------------
 2v07_III_H_solv
 ---------------
 Structure from the checkpoint file:  "2v07_III_H.chk"
 Charge =  1 Multiplicity = 6

                         Standard orientation:
 ---------------------------------------------------------------------
 Center     Atomic      Atomic             Coordinates (Angstroms)
 Number     Number       Type             X           Y           Z
 ---------------------------------------------------------------------
      1          6           0        2.644068   -1.585285    4.965724
      2          6           0        1.804293   -1.106549    3.817534
      3          7           0        0.450037   -0.912954    3.939492
      4          6           0        2.113948   -0.809797    2.528619
      5          6           0       -0.047469   -0.508556    2.777320
      6          7           0        0.936052   -0.458039    1.896003
      7          6           0       -1.329303    2.201808   -2.798114
      8          6           0       -0.605716    0.915390   -3.196431
      9         16           0        0.897720    0.643730   -2.311130
     10          6           0        1.705736   -0.598781   -3.268844
     11         26           0        0.842731    0.013503   -0.052691
     12          6           0       -2.570892   -0.407909   -0.089486
     13          6           0        1.249349   -3.302958   -0.710999
     14          6           0        4.226438    0.497914   -0.356674
     15          6           0        0.480902    3.215656    0.920391
     16          7           0       -0.413346   -1.538952   -0.366911
     17          6           0       -1.798622   -1.515922   -0.288706
     18          6           0       -2.295121   -2.869238   -0.451881
     19          6           0       -1.238941   -3.665821   -0.651600
     20          6           0       -0.026030   -2.849501   -0.596511
     21          6           0       -1.246718   -5.185369   -0.873209
     22          6           0       -3.788045   -3.235694   -0.376122
     23          6           0       -4.226518   -3.183248    1.093120
     24          6           0       -5.717942   -3.365306    1.294438
     25          8           0       -6.479116   -3.171864    0.312809
     26          8           0       -6.158246   -3.663263    2.459937
     27          7           0        2.445694   -1.157446   -0.448377
     28          6           0        2.389319   -2.514355   -0.655359
     29          6           0        3.734335   -2.991000   -0.873586
     30          6           0        4.565420   -1.938615   -0.785959
     31          6           0        3.756926   -0.770200   -0.530629
     32          6           0        4.046720   -4.466222   -1.153722
     33          6           0        6.078420   -1.877185   -1.008381
     34          6           0        6.451217   -2.285307   -2.261389
     35          7           0        2.130786    1.564584    0.224037
     36          6           0        3.477771    1.553847    0.056604
     37          6           0        3.986951    2.858384    0.444458
     38          6           0        2.949098    3.625170    0.803520
     39          6           0        1.755175    2.812600    0.659559
     40          6           0        5.455909    3.246796    0.420270
     41          6           0        2.969159    5.070415    1.310713
     42          6           0        3.634288    6.048084    0.668069
     43          7           0       -0.752837    1.181739    0.346733
     44          6           0       -0.651642    2.528218    0.673649
     45          6           0       -1.977284    3.126731    0.721598
     46          6           0       -2.907700    2.010105    0.385728
     47          6           0       -2.092408    0.849306    0.182941
     48          6           0       -2.343145    4.590747    1.008413
     49          6           0       -4.424344    2.153149    0.281205
     50          6           0       -4.740876    2.627023   -1.143523
     51          6           0       -6.233377    2.835802   -1.369524
     52          8           0       -6.659902    3.033099   -2.523895
     53          8           0       -7.012893    2.828326   -0.407810
     54          1           0        3.403046   -2.245725    4.601482
     55          1           0        2.025759   -2.105027    5.667480
     56          1           0        3.102074   -0.746391    5.446753
     57          1           0        3.087463   -0.842226    2.085767
     58          1           0       -1.071642   -0.264687    2.586278
     59          1           0       -2.299993    2.218958   -3.247964
     60          1           0       -1.428877    2.239999   -1.733442
     61          1           0       -0.765487    3.046848   -3.134147
     62          1           0       -0.323174    1.043681   -4.220448
     63          1           0       -1.258166    0.114415   -2.917776
     64          1           0        2.543967   -0.980154   -2.724028
     65          1           0        2.043064   -0.174772   -4.191517
     66          1           0        1.020123   -1.394824   -3.471703
     67          1           0       -3.632255   -0.529095   -0.150504
     68          1           0        1.385829   -4.354275   -0.855935
     69          1           0        5.261771    0.674841   -0.560838
     70          1           0        0.366733    4.180443    1.368780
     71          1           0       -0.259745   -5.514398   -1.123258
     72          1           0       -1.916072   -5.425802   -1.672619
     73          1           0       -1.569756   -5.674692    0.021838
     74          1           0       -3.876689   -4.253883   -0.692876
     75          1           0       -4.325423   -2.466637   -0.890591
     76          1           0       -4.005513   -2.191516    1.428567
     77          1           0       -3.763266   -4.023743    1.566265
     78          1           0        5.101832   -4.589210   -1.282221
     79          1           0        3.540547   -4.775087   -2.044391
     80          1           0        3.715714   -5.063550   -0.329990
     81          1           0        6.558085   -2.503650   -0.285634
     82          1           0        5.667241   -2.066180   -2.955842
     83          1           0        7.341688   -1.769406   -2.554320
     84          1           0        5.555984    4.279930    0.680115
     85          1           0        5.994789    2.648066    1.124565
     86          1           0        5.851273    3.085880   -0.560899
     87          1           0        2.436041    5.310923    2.206727
     88          1           0        4.173416    5.827746   -0.229535
     89          1           0        3.623975    7.045723    1.054734
     90          1           0       -3.404559    4.679754    1.110290
     91          1           0       -1.870169    4.905531    1.915112
     92          1           0       -2.009565    5.206775    0.199628
     93          1           0       -4.715609    2.937406    0.948293
     94          1           0       -4.843412    1.174703    0.390401
     95          1           0       -4.450448    1.828559   -1.793913
     96          1           0       -4.287193    3.590853   -1.244034
     97          1           0       -7.922515    2.546541   -0.529406
     98          1           0       -7.411938   -3.388907    0.378647
     99          1           0       -0.079852   -1.054898    4.775595
    100          1           0        6.635988   -3.339199   -2.252979
    101          1           0        6.406854   -0.869274   -0.862967
 ---------------------------------------------------------------------

 SCF Done:  E(UPBE1PBE) =  -3880.56389708     A.U. after   17 cycles

 Alpha virt. eigenvalues --    1.01936   1.01953   1.02340   1.02805   1.02965
 Alpha virt. eigenvalues --    1.03146   1.03415   1.03614   1.04031   1.04243
 Alpha virt. eigenvalues --    1.04642   1.04706   1.05305   1.05498   1.05834

  Beta  occ. eigenvalues -- -256.46528 -89.04507 -30.19721 -26.02939 -26.02895
  Beta  occ. eigenvalues --  -26.02873 -19.28404 -19.27365 -19.19209 -19.18657
  Beta  occ. eigenvalues --  -14.46417 -14.41509 -14.40038 -14.39940 -14.39897
  Beta  occ. eigenvalues --  -14.39838 -10.37301 -10.36335 -10.30630 -10.28246
  Beta  occ. eigenvalues --  -10.28138 -10.28113 -10.28065 -10.28020 -10.27880
  Beta  occ. eigenvalues --  -10.27812 -10.27714 -10.27569 -10.26714 -10.26262
  Beta  occ. eigenvalues --  -10.25976 -10.25780 -10.25112 -10.25104 -10.24989
  Beta  occ. eigenvalues --  -10.24922 -10.24872 -10.24833 -10.24787 -10.24750
  Beta  occ. eigenvalues --  -10.24699 -10.24669 -10.24480 -10.24444 -10.24386
  Beta  occ. eigenvalues --  -10.24375 -10.24335 -10.24330 -10.23288 -10.23116
  Beta  occ. eigenvalues --  -10.23076 -10.22703 -10.22567 -10.22095 -10.21825
  Beta  occ. eigenvalues --  -10.21646 -10.19693  -8.02667  -5.96297  -5.95989
  Beta  occ. eigenvalues --   -5.95459  -3.48921  -2.23480  -2.23203  -2.23135
  Beta  occ. eigenvalues --   -1.18763  -1.18220  -1.08613  -1.03592  -1.02611
  Beta  occ. eigenvalues --   -1.01481  -1.00359  -0.99959  -0.98666  -0.93260
  Beta  occ. eigenvalues --   -0.87605  -0.87208  -0.86333  -0.85978  -0.85560
  Beta  occ. eigenvalues --   -0.84915  -0.84362  -0.84133  -0.82827  -0.81495
  Beta  occ. eigenvalues --   -0.80987  -0.80331  -0.79319  -0.79181  -0.79085
  Beta  occ. eigenvalues --   -0.76858  -0.74718  -0.74329  -0.74113  -0.73544
  Beta  occ. eigenvalues --   -0.71881  -0.71448  -0.70956  -0.69433  -0.69245
  Beta  occ. eigenvalues --   -0.68605  -0.66800  -0.66718  -0.66567  -0.64726
  Beta  occ. eigenvalues --   -0.64267  -0.62993  -0.62570  -0.62151  -0.61327
  Beta  occ. eigenvalues --   -0.58843  -0.58509  -0.57824  -0.57364  -0.56411
  Beta  occ. eigenvalues --   -0.55323  -0.55031  -0.54563  -0.53372  -0.53208
  Beta  occ. eigenvalues --   -0.52831  -0.52659  -0.51965  -0.51715  -0.51365
  Beta  occ. eigenvalues --   -0.50985  -0.50920  -0.50396  -0.50101  -0.49905
  Beta  occ. eigenvalues --   -0.49814  -0.48992  -0.48755  -0.48191  -0.48135
  Beta  occ. eigenvalues --   -0.47706  -0.47616  -0.47277  -0.46765  -0.46641
  Beta  occ. eigenvalues --   -0.46465  -0.46204  -0.45842  -0.45784  -0.45469
  Beta  occ. eigenvalues --   -0.45397  -0.44917  -0.44775  -0.44539  -0.44142
  Beta  occ. eigenvalues --   -0.43881  -0.43784  -0.43478  -0.43369  -0.42937
  Beta  occ. eigenvalues --   -0.42772  -0.42717  -0.42500  -0.42240  -0.41981
  Beta  occ. eigenvalues --   -0.41508  -0.41261  -0.41129  -0.40692  -0.40590
  Beta  occ. eigenvalues --   -0.40222  -0.39899  -0.39811  -0.39665  -0.39473
  Beta  occ. eigenvalues --   -0.39387  -0.39140  -0.38904  -0.38606  -0.38207
  Beta  occ. eigenvalues --   -0.37875  -0.37304  -0.37061  -0.36848  -0.36450
  Beta  occ. eigenvalues --   -0.36043  -0.35662  -0.35133  -0.34946  -0.34836
  Beta  occ. eigenvalues --   -0.33895  -0.33674  -0.33538  -0.32904  -0.31939
  Beta  occ. eigenvalues --   -0.31462  -0.30763  -0.29636  -0.29297  -0.28478
  Beta  occ. eigenvalues --   -0.27339  -0.26911  -0.26219  -0.25964  -0.25180
  Beta  occ. eigenvalues --   -0.22547  -0.22226
  Beta virt. eigenvalues --   -0.12673  -0.12625  -0.10392  -0.08832  -0.08632
  Beta virt. eigenvalues --   -0.04458  -0.04112  -0.02730  -0.01347  -0.00739
  Beta virt. eigenvalues --   -0.00341   0.00222   0.00964   0.01625   0.01960

 Mulliken charges and spin densities:
               1          2
     1  C   -0.395043   0.001124
     2  C    0.134883   0.005342
     3  N   -0.190899   0.005917
     4  C   -0.217757   0.001626
     5  C    0.013616   0.010966
     6  N    0.036316   0.056407
     7  C   -0.358306  -0.001979
     8  C   -0.162820   0.007524
     9  S   -0.004807   0.099698
    10  C   -0.358331   0.000780
    11  Fe  -0.136023   4.360990
    12  C   -0.708537  -0.018772
    13  C   -0.566410  -0.019939
    14  C   -0.491836  -0.018760
    15  C   -0.523253  -0.019435
    16  N    0.010599   0.050035
    17  C    0.295369   0.015884
    18  C    0.011587   0.015847
    19  C   -0.103457   0.013654
    20  C    0.333267   0.022027
    21  C   -0.438815   0.000709
    22  C   -0.273989  -0.000308
    23  C   -0.166399   0.000609
    24  C    0.267902   0.000068
    25  O   -0.325945   0.000002
    26  O   -0.458009   0.000098
    27  N   -0.085953   0.052838
    28  C    0.271328   0.019271
    29  C   -0.048465   0.014213
    30  C   -0.054833   0.019975
    31  C    0.238420   0.019476
    32  C   -0.417289   0.000030
    33  C   -0.149944   0.000135
    34  C   -0.389920   0.000296
    35  N    0.013791   0.045336
    36  C    0.190622   0.014799
    37  C   -0.036725   0.014515
    38  C    0.012317   0.012535
    39  C    0.270234   0.019958
    40  C   -0.407686   0.000137
    41  C   -0.294252  -0.001673
    42  C   -0.304038   0.003545
    43  N   -0.082148   0.063879
    44  C    0.310299   0.016878
    45  C   -0.073476   0.025071
    46  C    0.089682   0.028171
    47  C    0.267697   0.014656
    48  C   -0.426566  -0.000093
    49  C   -0.325153  -0.000779
    50  C   -0.155104   0.001290
    51  C    0.256531   0.000243
    52  O   -0.428748   0.000257
    53  O   -0.326962  -0.000005
    54  H    0.162263   0.000041
    55  H    0.151253   0.000175
    56  H    0.161851   0.000159
    57  H    0.180395   0.000790
    58  H    0.200680   0.000513
    59  H    0.147807   0.000191
    60  H    0.097855   0.001490
    61  H    0.134503   0.000269
    62  H    0.160679   0.004741
    63  H    0.135717   0.001566
    64  H    0.170395   0.000019
    65  H    0.176539   0.003434
    66  H    0.156654   0.000899
    67  H    0.159290   0.000414
    68  H    0.163094   0.000318
    69  H    0.159402   0.000423
    70  H    0.154003   0.000288
    71  H    0.146330  -0.000007
    72  H    0.160420   0.000455
    73  H    0.158843   0.000465
    74  H    0.145306   0.000358
    75  H    0.135491   0.000318
    76  H    0.151314   0.000017
    77  H    0.152657  -0.000022
    78  H    0.153203   0.000332
    79  H    0.157685   0.000391
    80  H    0.155745   0.000446
    81  H    0.125921   0.000604
    82  H    0.127395   0.000091
    83  H    0.133722   0.000268
    84  H    0.158567   0.000433
    85  H    0.156273   0.000489
    86  H    0.152720   0.000353
    87  H    0.154708   0.000204
    88  H    0.169303  -0.000149
    89  H    0.162310  -0.000021
    90  H    0.151720   0.000358
    91  H    0.159371   0.000694
    92  H    0.168692   0.000950
    93  H    0.145958   0.000558
    94  H    0.126362   0.000207
    95  H    0.145307  -0.000006
    96  H    0.153374  -0.000033
    97  H    0.383841   0.000018
    98  H    0.378204   0.000007
    99  H    0.282742   0.001436
   100  H    0.124849  -0.000032
   101  H    0.112724   0.000019
 Sum of Mulliken charges =   1.00000   5.00000

 Dipole moment (field-independent basis, Debye):
    X=              3.9236    Y=             -3.0437    Z=              3.5974  Tot=              6.1319
 Quadrupole moment (field-independent basis, Debye-Ang):
   XX=           -249.6667   YY=           -275.4145   ZZ=           -293.7496
   XY=             -1.5678   XZ=             -0.9782   YZ=             23.7408

 Normal termination of Gaussian 16 at Fri Oct  7 19:44:48 2022.
