 Gaussian 16, Revision A.03,

 ----------------------------------------------------------------------
 # PBE1PBE/def2TZVP empiricaldispersion=GD3BJ int=(grid=ultrafine) geom
 =check pop=nbo
 ----------------------------------------------------------------------

 ---------
 2v07_II_Q
 ---------
 Structure from the checkpoint file:  "2v07_II_Q.chk"
 Charge =  0 Multiplicity = 5

 SCF Done:  E(UPBE1PBE) =  -3880.63520537     A.U. after   70 cycles

 Summary of Natural Population Analysis:

                                       Natural Population
                Natural  -----------------------------------------------
    Atom  No    Charge         Core      Valence    Rydberg      Total
 -----------------------------------------------------------------------
      C    1   -0.31902      0.99970     2.31612    0.00321     3.31902
      C    2    0.05161      0.99955     1.93943    0.00941     2.94839
      N    3   -0.23665      0.99968     2.72723    0.00974     3.73665
      C    4   -0.03040      0.99943     2.02141    0.00956     3.03040
      C    5    0.10643      0.99964     1.88224    0.01169     2.89357
      N    6   -0.16859      0.99971     2.64557    0.02331     3.66859
      C    7   -0.30354      0.99972     2.29768    0.00614     3.30354
      C    8   -0.27843      0.99970     2.26653    0.01221     3.27843
      S    9    0.31072      4.99913     2.66777    0.02237     7.68928
      C   10   -0.37970      0.99965     2.36926    0.01079     3.37970
     Fe   11    1.98001      8.99534     1.98768    0.03696    11.01999
      C   12   -0.15533      0.99943     2.14704    0.00886     3.15533
      C   13   -0.11455      0.99945     2.10682    0.00828     3.11455
      C   14   -0.14061      0.99943     2.13245    0.00873     3.14061
      C   15   -0.09871      0.99942     2.09090    0.00839     3.09871
      N   16   -0.19012      0.99972     2.67152    0.01888     3.69012
      C   17    0.08995      0.99949     1.90033    0.01023     2.91005
      C   18   -0.03586      0.99937     2.02700    0.00949     3.03586
      C   19    0.00404      0.99939     1.98816    0.00842     2.99596
      C   20    0.05508      0.99950     1.93517    0.01026     2.94492
      C   21   -0.31897      0.99970     2.31560    0.00367     3.31897
      C   22   -0.21184      0.99969     2.20503    0.00713     3.21184
      C   23   -0.24835      0.99964     2.24002    0.00869     3.24835
      C   24    0.38014      0.99977     1.60232    0.01777     2.61986
      O   25   -0.32261      0.99981     3.30967    0.01313     4.32261
      O   26   -0.31448      0.99991     3.30332    0.01125     4.31448
      N   27   -0.19245      0.99972     2.67081    0.02193     3.69245
      C   28    0.04499      0.99952     1.94439    0.01110     2.95501
      C   29   -0.00171      0.99939     1.99387    0.00846     3.00171
      C   30   -0.03393      0.99939     2.02469    0.00984     3.03393
      C   31    0.08074      0.99949     1.90894    0.01082     2.91926
      C   32   -0.31982      0.99970     2.31645    0.00367     3.31982
      C   33   -0.21214      0.99960     2.20395    0.00858     3.21214
      C   34   -0.29866      0.99964     2.29143    0.00759     3.29866
      N   35   -0.18080      0.99971     2.66177    0.01933     3.68080
      C   36    0.08754      0.99951     1.90261    0.01034     2.91246
      C   37   -0.01723      0.99940     2.00932    0.00851     3.01723
      C   38   -0.03083      0.99936     2.02070    0.01078     3.03083
      C   39    0.06042      0.99950     1.93013    0.00994     2.93958
      C   40   -0.32063      0.99970     2.31729    0.00364     3.32063
      C   41   -0.09804      0.99960     2.08917    0.00927     3.09804
      C   42   -0.19216      0.99962     2.18465    0.00789     3.19216
      N   43   -0.19308      0.99973     2.67142    0.02193     3.69308
      C   44    0.03055      0.99945     1.95904    0.01096     2.96945
      C   45    0.02364      0.99958     1.96884    0.00794     2.97636
      C   46   -0.04705      0.99955     2.03857    0.00893     3.04705
      C   47    0.07145      0.99945     1.91784    0.01126     2.92855
      C   48   -0.32513      0.99969     2.32151    0.00393     3.32513
      C   49   -0.21520      0.99967     2.20846    0.00707     3.21520
      C   50   -0.24537      0.99965     2.23735    0.00838     3.24537
      C   51    0.38007      0.99978     1.60111    0.01905     2.61993
      O   52   -0.30910      0.99989     3.29684    0.01236     4.30910
      O   53   -0.32636      0.99980     3.31271    0.01386     4.32636
      H   54    0.11692      0.00000     0.38255    0.00053     0.38308
      H   55    0.10728      0.00000     0.39206    0.00066     0.39272
      H   56    0.11279      0.00000     0.38651    0.00070     0.38721
      H   57    0.11746      0.00000     0.38164    0.00090     0.38254
      H   58    0.11375      0.00000     0.38528    0.00098     0.38625
      H   59    0.10640      0.00000     0.39295    0.00065     0.39360
      H   60    0.11460      0.00000     0.38428    0.00112     0.38540
      H   61    0.10375      0.00000     0.39556    0.00069     0.39625
      H   62    0.11222      0.00000     0.38690    0.00088     0.38778
      H   63    0.10979      0.00000     0.38875    0.00146     0.39021
      H   64    0.12647      0.00000     0.37288    0.00065     0.37353
      H   65    0.10832      0.00000     0.39100    0.00068     0.39168
      H   66    0.10906      0.00000     0.39000    0.00094     0.39094
      H   67    0.10518      0.00000     0.39361    0.00121     0.39482
      H   68    0.10815      0.00000     0.39047    0.00138     0.39185
      H   69    0.10971      0.00000     0.38888    0.00141     0.39029
      H   70    0.10929      0.00000     0.38942    0.00129     0.39071
      H   71    0.10823      0.00000     0.39119    0.00058     0.39177
      H   72    0.10986      0.00000     0.38935    0.00079     0.39014
      H   73    0.10909      0.00000     0.39014    0.00077     0.39091
      H   74    0.11058      0.00000     0.38859    0.00083     0.38942
      H   75    0.11080      0.00000     0.38823    0.00097     0.38920
      H   76    0.12163      0.00000     0.37758    0.00078     0.37837
      H   77    0.12138      0.00000     0.37782    0.00080     0.37862
      H   78    0.10807      0.00000     0.39116    0.00077     0.39193
      H   79    0.11066      0.00000     0.38858    0.00077     0.38934
      H   80    0.10969      0.00000     0.38950    0.00080     0.39031
      H   81    0.10407      0.00000     0.39485    0.00108     0.39593
      H   82    0.10589      0.00000     0.39336    0.00075     0.39411
      H   83    0.10417      0.00000     0.39517    0.00066     0.39583
      H   84    0.11440      0.00000     0.38482    0.00078     0.38560
      H   85    0.10824      0.00000     0.39093    0.00083     0.39176
      H   86    0.10762      0.00000     0.39160    0.00078     0.39238
      H   87    0.10257      0.00000     0.39659    0.00084     0.39743
      H   88    0.09897      0.00000     0.40022    0.00081     0.40103
      H   89    0.09979      0.00000     0.39952    0.00069     0.40021
      H   90    0.10758      0.00000     0.39172    0.00070     0.39242
      H   91    0.11103      0.00000     0.38817    0.00080     0.38897
      H   92    0.11422      0.00000     0.38496    0.00082     0.38578
      H   93    0.11042      0.00000     0.38826    0.00132     0.38958
      H   94    0.10529      0.00000     0.39352    0.00119     0.39471
      H   95    0.12125      0.00000     0.37789    0.00086     0.37875
      H   96    0.12080      0.00000     0.37845    0.00076     0.37920
      H   97    0.25649      0.00000     0.24190    0.00161     0.24351
      H   98    0.25569      0.00000     0.24271    0.00159     0.24431
      H   99    0.20689      0.00000     0.29231    0.00081     0.29311
      H  100    0.10040      0.00000     0.39883    0.00077     0.39960
      H  101    0.10319      0.00000     0.39606    0.00075     0.39681
 =======================================================================
   * Total *    2.00000     64.97404   137.38685    0.63911   203.00000

 Normal termination of Gaussian 16 at Wed Sep 21 13:17:09 2022.
 Gaussian 16:  ES64L-G16RevA.03 25-Dec-2016

 ----------------------------------------------------------------------
 # PBE1PBE/def2TZVP empiricaldispersion=GD3BJ int=(grid=ultrafine) geom
 =check guess=read scrf=(smd,solvent=Chloroform)
 ----------------------------------------------------------------------

 --------------
 2v07_II_Q_solv
 --------------
 Structure from the checkpoint file:  "2v07_II_Q.chk"
 Charge =  0 Multiplicity = 5

                         Standard orientation:
 ---------------------------------------------------------------------
 Center     Atomic      Atomic             Coordinates (Angstroms)
 Number     Number       Type             X           Y           Z
 ---------------------------------------------------------------------
      1          6           0        2.644068   -1.585285    4.965724
      2          6           0        1.804293   -1.106549    3.817534
      3          7           0        0.450037   -0.912954    3.939492
      4          6           0        2.113948   -0.809797    2.528619
      5          6           0       -0.047469   -0.508556    2.777320
      6          7           0        0.936052   -0.458039    1.896003
      7          6           0       -1.329303    2.201808   -2.798114
      8          6           0       -0.605716    0.915390   -3.196431
      9         16           0        0.897720    0.643730   -2.311130
     10          6           0        1.705736   -0.598781   -3.268844
     11         26           0        0.842731    0.013503   -0.052691
     12          6           0       -2.570892   -0.407909   -0.089486
     13          6           0        1.249349   -3.302958   -0.710999
     14          6           0        4.226438    0.497914   -0.356674
     15          6           0        0.480902    3.215656    0.920391
     16          7           0       -0.413346   -1.538952   -0.366911
     17          6           0       -1.798622   -1.515922   -0.288706
     18          6           0       -2.295121   -2.869238   -0.451881
     19          6           0       -1.238941   -3.665821   -0.651600
     20          6           0       -0.026030   -2.849501   -0.596511
     21          6           0       -1.246718   -5.185369   -0.873209
     22          6           0       -3.788045   -3.235694   -0.376122
     23          6           0       -4.226518   -3.183248    1.093120
     24          6           0       -5.717942   -3.365306    1.294438
     25          8           0       -6.479116   -3.171864    0.312809
     26          8           0       -6.158246   -3.663263    2.459937
     27          7           0        2.445694   -1.157446   -0.448377
     28          6           0        2.389319   -2.514355   -0.655359
     29          6           0        3.734335   -2.991000   -0.873586
     30          6           0        4.565420   -1.938615   -0.785959
     31          6           0        3.756926   -0.770200   -0.530629
     32          6           0        4.046720   -4.466222   -1.153722
     33          6           0        6.078420   -1.877185   -1.008381
     34          6           0        6.451217   -2.285307   -2.261389
     35          7           0        2.130786    1.564584    0.224037
     36          6           0        3.477771    1.553847    0.056604
     37          6           0        3.986951    2.858384    0.444458
     38          6           0        2.949098    3.625170    0.803520
     39          6           0        1.755175    2.812600    0.659559
     40          6           0        5.455909    3.246796    0.420270
     41          6           0        2.969159    5.070415    1.310713
     42          6           0        3.634288    6.048084    0.668069
     43          7           0       -0.752837    1.181739    0.346733
     44          6           0       -0.651642    2.528218    0.673649
     45          6           0       -1.977284    3.126731    0.721598
     46          6           0       -2.907700    2.010105    0.385728
     47          6           0       -2.092408    0.849306    0.182941
     48          6           0       -2.343145    4.590747    1.008413
     49          6           0       -4.424344    2.153149    0.281205
     50          6           0       -4.740876    2.627023   -1.143523
     51          6           0       -6.233377    2.835802   -1.369524
     52          8           0       -6.659902    3.033099   -2.523895
     53          8           0       -7.012893    2.828326   -0.407810
     54          1           0        3.403046   -2.245725    4.601482
     55          1           0        2.025759   -2.105027    5.667480
     56          1           0        3.102074   -0.746391    5.446753
     57          1           0        3.087463   -0.842226    2.085767
     58          1           0       -1.071642   -0.264687    2.586278
     59          1           0       -2.299993    2.218958   -3.247964
     60          1           0       -1.428877    2.239999   -1.733442
     61          1           0       -0.765487    3.046848   -3.134147
     62          1           0       -0.323174    1.043681   -4.220448
     63          1           0       -1.258166    0.114415   -2.917776
     64          1           0        2.543967   -0.980154   -2.724028
     65          1           0        2.043064   -0.174772   -4.191517
     66          1           0        1.020123   -1.394824   -3.471703
     67          1           0       -3.632255   -0.529095   -0.150504
     68          1           0        1.385829   -4.354275   -0.855935
     69          1           0        5.261771    0.674841   -0.560838
     70          1           0        0.366733    4.180443    1.368780
     71          1           0       -0.259745   -5.514398   -1.123258
     72          1           0       -1.916072   -5.425802   -1.672619
     73          1           0       -1.569756   -5.674692    0.021838
     74          1           0       -3.876689   -4.253883   -0.692876
     75          1           0       -4.325423   -2.466637   -0.890591
     76          1           0       -4.005513   -2.191516    1.428567
     77          1           0       -3.763266   -4.023743    1.566265
     78          1           0        5.101832   -4.589210   -1.282221
     79          1           0        3.540547   -4.775087   -2.044391
     80          1           0        3.715714   -5.063550   -0.329990
     81          1           0        6.558085   -2.503650   -0.285634
     82          1           0        5.667241   -2.066180   -2.955842
     83          1           0        7.341688   -1.769406   -2.554320
     84          1           0        5.555984    4.279930    0.680115
     85          1           0        5.994789    2.648066    1.124565
     86          1           0        5.851273    3.085880   -0.560899
     87          1           0        2.436041    5.310923    2.206727
     88          1           0        4.173416    5.827746   -0.229535
     89          1           0        3.623975    7.045723    1.054734
     90          1           0       -3.404559    4.679754    1.110290
     91          1           0       -1.870169    4.905531    1.915112
     92          1           0       -2.009565    5.206775    0.199628
     93          1           0       -4.715609    2.937406    0.948293
     94          1           0       -4.843412    1.174703    0.390401
     95          1           0       -4.450448    1.828559   -1.793913
     96          1           0       -4.287193    3.590853   -1.244034
     97          1           0       -7.922515    2.546541   -0.529406
     98          1           0       -7.411938   -3.388907    0.378647
     99          1           0       -0.079852   -1.054898    4.775595
    100          1           0        6.635988   -3.339199   -2.252979
    101          1           0        6.406854   -0.869274   -0.862967
 ---------------------------------------------------------------------

 SCF Done:  E(UPBE1PBE) =  -3880.69850770     A.U. after   37 cycles

 Alpha virt. eigenvalues --    1.04653   1.04911   1.05269   1.05416   1.05632
 Alpha virt. eigenvalues --    1.05909   1.06376   1.06445   1.06523   1.07095
 Alpha virt. eigenvalues --    1.07347   1.07482   1.07936   1.08264   1.08612

  Beta  occ. eigenvalues -- -256.32104 -88.99802 -30.04944 -25.88651 -25.87962
  Beta  occ. eigenvalues --  -25.87787 -19.26992 -19.25938 -19.17753 -19.17166
  Beta  occ. eigenvalues --  -14.43378 -14.37141 -14.35507 -14.35362 -14.35295
  Beta  occ. eigenvalues --  -14.35255 -10.35753 -10.34730 -10.27039 -10.25133
  Beta  occ. eigenvalues --  -10.24278 -10.24207 -10.23807 -10.23798 -10.23750
  Beta  occ. eigenvalues --  -10.23582 -10.23542 -10.23469 -10.23094 -10.23043
  Beta  occ. eigenvalues --  -10.22759 -10.22525 -10.22504 -10.22439 -10.22371
  Beta  occ. eigenvalues --  -10.22114 -10.21893 -10.21783 -10.21728 -10.21493
  Beta  occ. eigenvalues --  -10.21490 -10.21328 -10.21289 -10.21246 -10.21203
  Beta  occ. eigenvalues --  -10.21112 -10.21059 -10.20809 -10.20771 -10.20766
  Beta  occ. eigenvalues --  -10.20692 -10.20499 -10.20324 -10.19873 -10.19480
  Beta  occ. eigenvalues --  -10.18977 -10.17846  -7.97926  -5.91583  -5.91261
  Beta  occ. eigenvalues --   -5.90706  -3.35782  -2.10717  -2.10567  -2.10284
  Beta  occ. eigenvalues --   -1.17319  -1.16797  -1.05301  -1.02120  -1.01172
  Beta  occ. eigenvalues --   -0.97374  -0.96311  -0.95859  -0.94520  -0.89674
  Beta  occ. eigenvalues --   -0.84189  -0.83649  -0.83404  -0.83301  -0.82810
  Beta  occ. eigenvalues --   -0.81909  -0.80962  -0.80601  -0.80088  -0.78741
  Beta  occ. eigenvalues --   -0.78039  -0.77390  -0.76691  -0.75893  -0.75650
  Beta  occ. eigenvalues --   -0.73875  -0.72309  -0.71606  -0.71439  -0.70758
  Beta  occ. eigenvalues --   -0.69254  -0.68863  -0.68492  -0.66240  -0.65956
  Beta  occ. eigenvalues --   -0.65396  -0.64524  -0.64157  -0.63324  -0.62223
  Beta  occ. eigenvalues --   -0.61194  -0.60372  -0.59065  -0.58666  -0.57552
  Beta  occ. eigenvalues --   -0.55646  -0.55380  -0.54626  -0.54241  -0.53226
  Beta  occ. eigenvalues --   -0.52438  -0.52045  -0.51521  -0.51198  -0.51043
  Beta  occ. eigenvalues --   -0.50437  -0.50261  -0.49357  -0.49193  -0.48942
  Beta  occ. eigenvalues --   -0.48439  -0.48366  -0.47731  -0.47175  -0.46978
  Beta  occ. eigenvalues --   -0.46863  -0.46200  -0.45827  -0.45642  -0.45384
  Beta  occ. eigenvalues --   -0.44967  -0.44583  -0.44230  -0.43823  -0.43557
  Beta  occ. eigenvalues --   -0.43425  -0.43189  -0.43012  -0.42861  -0.42735
  Beta  occ. eigenvalues --   -0.42640  -0.42205  -0.42157  -0.41967  -0.41778
  Beta  occ. eigenvalues --   -0.41259  -0.41129  -0.40822  -0.40567  -0.40350
  Beta  occ. eigenvalues --   -0.40030  -0.39803  -0.39622  -0.39425  -0.39160
  Beta  occ. eigenvalues --   -0.38977  -0.38639  -0.38468  -0.38065  -0.37667
  Beta  occ. eigenvalues --   -0.37612  -0.37467  -0.37157  -0.36963  -0.36901
  Beta  occ. eigenvalues --   -0.36292  -0.36167  -0.35708  -0.35653  -0.35031
  Beta  occ. eigenvalues --   -0.34605  -0.34355  -0.33670  -0.33265  -0.33224
  Beta  occ. eigenvalues --   -0.32380  -0.32258  -0.32150  -0.32072  -0.31367
  Beta  occ. eigenvalues --   -0.31190  -0.30502  -0.29753  -0.28841  -0.28694
  Beta  occ. eigenvalues --   -0.28291  -0.27903  -0.27739  -0.27414  -0.24690
  Beta  occ. eigenvalues --   -0.24063  -0.23739  -0.23157  -0.22377  -0.21864
  Beta  occ. eigenvalues --   -0.19129  -0.18676  -0.14134
  Beta virt. eigenvalues --   -0.07742  -0.05922  -0.01381  -0.00326   0.00387
  Beta virt. eigenvalues --    0.00741   0.00999   0.01290   0.02844   0.03580
  Beta virt. eigenvalues --    0.04009   0.04474   0.05148   0.05368   0.05519

 Mulliken charges and spin densities:
               1          2
     1  C   -0.402124   0.000990
     2  C    0.135467   0.001038
     3  N   -0.206672   0.004211
     4  C   -0.227136   0.003415
     5  C    0.000490   0.013694
     6  N    0.007124   0.024933
     7  C   -0.361428  -0.001031
     8  C   -0.158291   0.003718
     9  S   -0.034604   0.059099
    10  C   -0.363083   0.000880
    11  Fe  -0.095958   3.894994
    12  C   -0.729339  -0.063480
    13  C   -0.561182   0.016094
    14  C   -0.515184  -0.048801
    15  C   -0.521621   0.014612
    16  N   -0.027335   0.024895
    17  C    0.278008   0.027251
    18  C   -0.011570  -0.031605
    19  C   -0.101855   0.033975
    20  C    0.293077  -0.046585
    21  C   -0.448943  -0.000674
    22  C   -0.281080   0.004407
    23  C   -0.163936  -0.001635
    24  C    0.267578  -0.000181
    25  O   -0.325194   0.000013
    26  O   -0.463715  -0.000175
    27  N   -0.096996   0.046005
    28  C    0.233038  -0.058013
    29  C   -0.052446   0.037014
    30  C   -0.075859  -0.041459
    31  C    0.216853   0.025154
    32  C   -0.426891  -0.001180
    33  C   -0.164216   0.004542
    34  C   -0.382857  -0.001331
    35  N   -0.022534   0.028059
    36  C    0.170239   0.019347
    37  C   -0.048314  -0.030289
    38  C    0.004742   0.031353
    39  C    0.239321  -0.044587
    40  C   -0.416547   0.003136
    41  C   -0.294498  -0.005111
    42  C   -0.314966   0.006805
    43  N   -0.088640   0.053622
    44  C    0.280454  -0.048224
    45  C   -0.086568   0.063839
    46  C    0.046168  -0.072599
    47  C    0.249471   0.034029
    48  C   -0.436359  -0.002472
    49  C   -0.333279   0.008448
    50  C   -0.152730  -0.003449
    51  C    0.255558  -0.000530
    52  O   -0.434168  -0.000222
    53  O   -0.327107   0.000047
    54  H    0.158842  -0.000003
    55  H    0.144485  -0.000023
    56  H    0.155768   0.000048
    57  H    0.168837   0.001186
    58  H    0.189029   0.000676
    59  H    0.134985  -0.000132
    60  H    0.108218   0.000748
    61  H    0.121388   0.000074
    62  H    0.139509   0.002620
    63  H    0.121970   0.000665
    64  H    0.165061   0.000198
    65  H    0.157518   0.001765
    66  H    0.142703   0.000626
    67  H    0.145047   0.002712
    68  H    0.147727  -0.001095
    69  H    0.144173   0.002101
    70  H    0.138357  -0.001069
    71  H    0.141437   0.000063
    72  H    0.152190   0.000753
    73  H    0.151111   0.000872
    74  H    0.136352   0.000019
    75  H    0.129415  -0.001141
    76  H    0.152365   0.000151
    77  H    0.148112  -0.000005
    78  H    0.143933   0.000320
    79  H    0.151713   0.000867
    80  H    0.149333   0.000767
    81  H    0.116842  -0.000941
    82  H    0.127106   0.000220
    83  H    0.125106  -0.000389
    84  H    0.150041   0.000365
    85  H    0.148930  -0.001451
    86  H    0.146037  -0.001427
    87  H    0.147865   0.000552
    88  H    0.164714  -0.000280
    89  H    0.153801  -0.000145
    90  H    0.142540   0.000430
    91  H    0.151943   0.001251
    92  H    0.161600   0.002094
    93  H    0.136374  -0.000845
    94  H    0.119342  -0.001214
    95  H    0.145676   0.000438
    96  H    0.149140  -0.000038
    97  H    0.380049  -0.000074
    98  H    0.374235  -0.000038
    99  H    0.270997   0.001784
   100  H    0.118082   0.000120
   101  H    0.107639  -0.000164
 Sum of Mulliken charges =  -0.00000   4.00000

 Dipole moment (field-independent basis, Debye):
    X=              0.4685    Y=             -3.4428    Z=              4.2625  Tot=              5.4992
 Quadrupole moment (field-independent basis, Debye-Ang):
   XX=           -299.4303   YY=           -316.0396   ZZ=           -315.8946
   XY=             -0.3104   XZ=              0.1458   YZ=             20.8240

 Normal termination of Gaussian 16 at Fri Sep 23 00:11:50 2022.
