 Gaussian 16, Revision A.03,

 ----------------------------------------------------------------------
 # PBE1PBE/def2TZVP empiricaldispersion=GD3BJ int=(grid=ultrafine) geom
 =check pop=nbo
 ----------------------------------------------------------------------

 ----------
 1es1_III_D
 ----------
 Structure from the checkpoint file:  "1es1_III_D.chk"
 Charge =  1 Multiplicity = 2

 SCF Done:  E(UPBE1PBE) =  -3627.32082407     A.U. after   58 cycles

 Summary of Natural Population Analysis:

                                       Natural Population
                Natural  -----------------------------------------------
    Atom  No    Charge         Core      Valence    Rydberg      Total
 -----------------------------------------------------------------------
      C    1   -0.32040      0.99969     2.31757    0.00313     3.32040
      C    2    0.05825      0.99955     1.93308    0.00912     2.94175
      N    3   -0.23683      0.99969     2.72746    0.00969     3.73683
      C    4   -0.03419      0.99945     2.02541    0.00933     3.03419
      C    5    0.11197      0.99967     1.87905    0.00931     2.88803
      N    6   -0.18968      0.99970     2.66667    0.02330     3.68968
      C    7   -0.32096      0.99969     2.31545    0.00583     3.32096
      C    8    0.06103      0.99955     1.93036    0.00907     2.93897
      N    9   -0.23491      0.99969     2.72553    0.00969     3.73491
      C   10   -0.03293      0.99944     2.02427    0.00921     3.03293
      C   11    0.10979      0.99966     1.87991    0.01064     2.89021
      N   12   -0.18568      0.99969     2.66240    0.02360     3.68568
      C   13   -0.11602      0.99947     2.10825    0.00830     3.11602
      C   14   -0.12775      0.99947     2.12010    0.00818     3.12775
      C   15   -0.10693      0.99949     2.09912    0.00832     3.10693
      C   16   -0.13478      0.99951     2.12756    0.00771     3.13478
      C   17    0.08359      0.99949     1.90706    0.00986     2.91641
      C   18   -0.00480      0.99940     1.99595    0.00945     3.00480
      C   19   -0.00780      0.99943     2.00009    0.00827     3.00780
      C   20    0.08472      0.99949     1.90567    0.01012     2.91528
      C   21   -0.32142      0.99969     2.31561    0.00612     3.32142
      C   22   -0.21132      0.99967     2.20465    0.00700     3.21132
      C   23   -0.24557      0.99964     2.23735    0.00858     3.24557
      C   24    0.38446      0.99977     1.59720    0.01857     2.61554
      O   25   -0.32328      0.99981     3.31001    0.01346     4.32328
      O   26   -0.31373      0.99989     3.30147    0.01237     4.31373
      C   27    0.09180      0.99952     1.89863    0.01006     2.90820
      C   28    0.00558      0.99943     1.98709    0.00790     2.99442
      C   29   -0.03565      0.99942     2.02525    0.01098     3.03565
      C   30    0.08827      0.99951     1.90219    0.01003     2.91173
      C   31   -0.31748      0.99969     2.31420    0.00358     3.31748
      C   32   -0.11158      0.99959     2.10230    0.00969     3.11158
      C   33   -0.17029      0.99968     2.16547    0.00515     3.17029
      C   34    0.06861      0.99949     1.92123    0.01066     2.93139
      C   35    0.04994      0.99927     1.93922    0.01156     2.95006
      C   36   -0.08215      0.99941     2.07305    0.00970     3.08215
      C   37    0.09612      0.99956     1.89415    0.01017     2.90388
      C   38   -0.62187      0.99956     2.59231    0.03000     3.62187
      C   39   -0.10409      0.99961     2.09585    0.00864     3.10409
      C   40   -0.18465      0.99970     2.17862    0.00634     3.18465
      C   41    0.08257      0.99954     1.90748    0.01041     2.91743
      C   42   -0.01024      0.99943     2.00272    0.00809     3.01024
      C   43   -0.00033      0.99940     1.99145    0.00949     3.00033
      C   44    0.08106      0.99947     1.90951    0.00996     2.91894
      C   45   -0.31921      0.99969     2.31563    0.00388     3.31921
      C   46   -0.20851      0.99968     2.20060    0.00823     3.20851
      C   47   -0.25920      0.99964     2.25105    0.00851     3.25920
      C   48    0.38085      0.99975     1.60205    0.01735     2.61915
      O   49   -0.32485      0.99980     3.30961    0.01545     4.32485
      O   50   -0.28217      0.99989     3.27045    0.01182     4.28217
      N   51   -0.20629      0.99967     2.68343    0.02319     3.70629
      N   52   -0.20665      0.99967     2.68478    0.02220     3.70665
      N   53   -0.20596      0.99968     2.68265    0.02363     3.70596
      N   54   -0.20222      0.99966     2.67977    0.02279     3.70222
     Fe   55    0.72366      8.99478     3.25815    0.02340    12.27634
      H   56    0.12026      0.00000     0.37929    0.00045     0.37974
      H   57    0.11524      0.00000     0.38409    0.00067     0.38476
      H   58    0.11397      0.00000     0.38537    0.00066     0.38603
      H   59    0.11698      0.00000     0.38225    0.00077     0.38302
      H   60    0.11324      0.00000     0.38586    0.00090     0.38676
      H   61    0.11907      0.00000     0.38052    0.00041     0.38093
      H   62    0.11091      0.00000     0.38858    0.00051     0.38909
      H   63    0.12238      0.00000     0.37701    0.00061     0.37762
      H   64    0.11638      0.00000     0.38278    0.00084     0.38362
      H   65    0.11313      0.00000     0.38609    0.00078     0.38687
      H   66    0.10831      0.00000     0.39030    0.00139     0.39169
      H   67    0.11399      0.00000     0.38475    0.00126     0.38601
      H   68    0.13155      0.00000     0.36724    0.00120     0.36845
      H   69    0.11348      0.00000     0.38534    0.00118     0.38652
      H   70    0.11153      0.00000     0.38784    0.00063     0.38847
      H   71    0.11397      0.00000     0.38543    0.00061     0.38603
      H   72    0.11538      0.00000     0.38395    0.00067     0.38462
      H   73    0.11434      0.00000     0.38474    0.00092     0.38566
      H   74    0.11638      0.00000     0.38276    0.00086     0.38362
      H   75    0.12007      0.00000     0.37921    0.00072     0.37993
      H   76    0.11852      0.00000     0.38070    0.00079     0.38148
      H   77    0.11676      0.00000     0.38255    0.00070     0.38324
      H   78    0.10762      0.00000     0.39176    0.00062     0.39238
      H   79    0.11679      0.00000     0.38252    0.00069     0.38321
      H   80    0.11079      0.00000     0.38809    0.00112     0.38921
      H   81    0.09860      0.00000     0.40059    0.00082     0.40140
      H   82    0.10375      0.00000     0.39557    0.00068     0.39625
      H   83    0.20023      0.00000     0.29891    0.00087     0.29977
      H   84    0.21578      0.00000     0.28308    0.00114     0.28422
      H   85    0.21245      0.00000     0.28509    0.00246     0.28755
      H   86    0.10445      0.00000     0.39475    0.00080     0.39555
      H   87    0.08679      0.00000     0.41200    0.00121     0.41321
      H   88    0.10677      0.00000     0.39256    0.00066     0.39323
      H   89    0.11119      0.00000     0.38810    0.00071     0.38881
      H   90    0.11080      0.00000     0.38859    0.00061     0.38920
      H   91    0.11555      0.00000     0.38370    0.00075     0.38445
      H   92    0.11197      0.00000     0.38720    0.00083     0.38803
      H   93    0.12283      0.00000     0.37630    0.00087     0.37717
      H   94    0.11449      0.00000     0.38462    0.00089     0.38551
      H   95    0.11317      0.00000     0.38591    0.00092     0.38683
      H   96    0.25470      0.00000     0.24421    0.00108     0.24530
      H   97    0.25731      0.00000     0.24115    0.00154     0.24269
      H   98    0.21425      0.00000     0.28495    0.00080     0.28575
      H   99    0.21398      0.00000     0.28526    0.00076     0.28602
 =======================================================================
   * Total *    1.00000     62.97284   140.35772    0.66944   204.00000

 Normal termination of Gaussian 16 at Sat Oct 15 02:02:47 2022.
 Gaussian 16:  AM64L-G16RevA.03 25-Dec-2016

 ----------------------------------------------------------------------
 # PBE1PBE/def2TZVP empiricaldispersion=GD3BJ int=(grid=ultrafine) geom
 =check guess=read scrf=(smd,solvent=Chloroform)
 ----------------------------------------------------------------------

 ---------------
 1es1_III_D_solv
 ---------------
 Structure from the checkpoint file:  "1es1_III_D.chk"
 Charge =  1 Multiplicity = 2

                         Standard orientation:
 ---------------------------------------------------------------------
 Center     Atomic      Atomic             Coordinates (Angstroms)
 Number     Number       Type             X           Y           Z
 ---------------------------------------------------------------------
      1          6           0       -2.376143   -0.158234    5.582419
      2          6           0       -1.849930    0.387159    4.293872
      3          7           0       -1.578163    1.720338    4.069240
      4          6           0       -1.548717   -0.252873    3.136194
      5          6           0       -1.134542    1.839813    2.814967
      6          7           0       -1.100846    0.666369    2.211854
      7          6           0        0.492488   -2.311109   -4.720870
      8          6           0        0.137980   -1.290222   -3.691599
      9          7           0        0.064346    0.060284   -3.940392
     10          6           0       -0.100267   -1.434919   -2.365205
     11          6           0       -0.206164    0.674143   -2.783848
     12          7           0       -0.314690   -0.196163   -1.801193
     13          6           0        2.580579   -0.318988    0.848554
     14          6           0       -1.264239   -3.212404    0.802467
     15          6           0       -4.021767    0.450955   -0.689125
     16          6           0       -0.217458    3.474221   -0.347774
     17          6           0        1.777270   -1.444853    0.838492
     18          6           0        2.264017   -2.780018    1.073423
     19          6           0        1.170587   -3.578740    1.124239
     20          6           0        0.017919   -2.732608    0.892698
     21          6           0        1.165071   -5.080504    1.305762
     22          6           0        3.705352   -3.264006    1.184463
     23          6           0        4.484369   -3.201514   -0.122651
     24          6           0        3.787773   -3.935281   -1.247163
     25          8           0        3.539582   -5.150158   -1.105867
     26          8           0        3.483353   -3.294029   -2.273536
     27          6           0       -2.358136   -2.441833    0.423677
     28          6           0       -3.661609   -3.015666    0.141846
     29          6           0       -4.426249   -1.992472   -0.318825
     30          6           0       -3.606946   -0.792234   -0.269507
     31          6           0       -4.035878   -4.497255    0.302308
     32          6           0       -5.654240   -2.134150   -0.940674
     33          6           0       -6.851707   -1.801503   -0.335703
     34          6           0       -3.211060    1.587157   -0.764124
     35          6           0       -3.691543    2.887398   -1.197214
     36          6           0       -2.653297    3.770407   -1.070169
     37          6           0       -1.526759    2.985827   -0.563604
     38          6           0       -5.149860    3.203268   -1.560783
     39          6           0       -2.612248    5.139281   -1.340673
     40          6           0       -3.665314    5.955020   -1.771133
     41          6           0        0.865427    2.684600    0.075569
     42          6           0        2.203748    3.173138    0.395667
     43          6           0        2.980533    2.102598    0.695824
     44          6           0        2.127857    0.959533    0.603244
     45          6           0        2.657374    4.615141    0.521609
     46          6           0        4.473976    2.120190    1.027343
     47          6           0        5.287805    2.260104   -0.246727
     48          6           0        6.749057    2.565944    0.022361
     49          8           0        7.490249    2.815605   -0.952242
     50          8           0        7.155736    2.563120    1.204820
     51          7           0        0.392524   -1.422220    0.682998
     52          7           0       -2.311195   -1.089399    0.147173
     53          7           0       -1.889324    1.643010   -0.384390
     54          7           0        0.818749    1.315536    0.277398
     55         26           0       -0.735671    0.118124    0.211960
     56          1           0       -2.614104   -1.194289    5.460501
     57          1           0       -1.633566   -0.050194    6.345182
     58          1           0       -3.257406    0.379406    5.863877
     59          1           0       -1.643811   -1.305175    2.967324
     60          1           0       -0.845035    2.763880    2.359791
     61          1           0        0.080271   -3.257980   -4.440846
     62          1           0        0.094253   -2.015042   -5.668843
     63          1           0        1.557109   -2.392243   -4.790868
     64          1           0       -0.118932   -2.365957   -1.838213
     65          1           0       -0.319469    1.732174   -2.671455
     66          1           0        3.621272   -0.448991    1.060585
     67          1           0       -1.432828   -4.242466    1.037944
     68          1           0       -5.045785    0.556158   -0.981046
     69          1           0       -0.039022    4.515368   -0.518278
     70          1           0        0.526475   -5.526125    0.571925
     71          1           0        2.159653   -5.457507    1.189248
     72          1           0        0.805182   -5.320142    2.284513
     73          1           0        3.645179   -4.301769    1.438093
     74          1           0        4.192268   -2.578813    1.846521
     75          1           0        5.400510   -3.726017    0.051942
     76          1           0        4.504190   -2.170421   -0.407877
     77          1           0       -4.661787   -4.797231   -0.512033
     78          1           0       -3.146086   -5.091526    0.305958
     79          1           0       -4.560390   -4.634746    1.224741
     80          1           0       -5.677991   -2.519990   -1.938403
     81          1           0       -6.857699   -1.413469    0.661440
     82          1           0       -7.772686   -1.932032   -0.864533
     83          1           0       -5.696987    4.122782   -1.567480
     84          1           0       -5.179180    3.402799   -0.509961
     85          1           0       -4.651642    3.703182   -2.365001
     86          1           0       -1.666594    5.620645   -1.203096
     87          1           0       -4.637172    5.535750   -1.927995
     88          1           0       -3.498367    6.997800   -1.943294
     89          1           0        3.710180    4.674988    0.340178
     90          1           0        2.137293    5.216486   -0.194491
     91          1           0        2.444630    4.971112    1.507978
     92          1           0        4.708531    1.160070    1.437286
     93          1           0        4.650106    3.005054    1.602577
     94          1           0        4.895156    3.114761   -0.756911
     95          1           0        5.267897    1.299752   -0.718136
     96          1           0        7.501935    2.226079   -1.709819
     97          1           0        3.132192   -5.643275   -1.821736
     98          1           0       -1.692688    2.464403    4.727458
     99          1           0        0.190561    0.503883   -4.827686
 ---------------------------------------------------------------------

 SCF Done:  E(UPBE1PBE) =  -3627.43606977     A.U. after   37 cycles

 Alpha virt. eigenvalues --    1.11417   1.11870   1.12283   1.12412   1.13115
 Alpha virt. eigenvalues --    1.13273   1.13369   1.13438   1.13726   1.14307
 Alpha virt. eigenvalues --    1.14550   1.14803   1.14905   1.15112   1.15563

  Beta  occ. eigenvalues -- -256.43423 -30.19979 -26.03000 -26.02854 -26.02066
  Beta  occ. eigenvalues --  -19.28005 -19.27026 -19.19525 -19.18996 -14.46464
  Beta  occ. eigenvalues --  -14.46283 -14.42815 -14.42784 -14.41914 -14.41343
  Beta  occ. eigenvalues --  -14.41319 -14.41305 -10.36564 -10.36415 -10.30720
  Beta  occ. eigenvalues --  -10.30463 -10.29578 -10.29022 -10.28420 -10.28276
  Beta  occ. eigenvalues --  -10.27915 -10.27913 -10.27866 -10.27785 -10.27657
  Beta  occ. eigenvalues --  -10.27640 -10.27576 -10.25442 -10.25379 -10.25374
  Beta  occ. eigenvalues --  -10.25214 -10.25041 -10.24966 -10.24765 -10.24683
  Beta  occ. eigenvalues --  -10.24448 -10.24305 -10.24285 -10.24209 -10.24185
  Beta  occ. eigenvalues --  -10.24151 -10.24132 -10.24098 -10.24061 -10.24024
  Beta  occ. eigenvalues --  -10.23853 -10.23596 -10.23271 -10.23153 -10.22873
  Beta  occ. eigenvalues --  -10.22596 -10.22514 -10.22412 -10.20532  -3.52236
  Beta  occ. eigenvalues --   -2.27651  -2.27420  -2.26829  -1.18546  -1.17819
  Beta  occ. eigenvalues --   -1.08390  -1.08333  -1.04377  -1.03969  -1.01085
  Beta  occ. eigenvalues --   -1.00190  -0.99837  -0.98968  -0.93645  -0.93569
  Beta  occ. eigenvalues --   -0.88098  -0.86749  -0.86083  -0.85886  -0.85600
  Beta  occ. eigenvalues --   -0.84040  -0.83375  -0.82620  -0.82439  -0.81703
  Beta  occ. eigenvalues --   -0.80892  -0.80557  -0.78829  -0.78153  -0.76376
  Beta  occ. eigenvalues --   -0.75761  -0.74390  -0.73885  -0.73741  -0.73534
  Beta  occ. eigenvalues --   -0.71945  -0.71822  -0.70935  -0.68729  -0.68286
  Beta  occ. eigenvalues --   -0.66974  -0.66896  -0.66614  -0.66531  -0.64874
  Beta  occ. eigenvalues --   -0.64314  -0.63897  -0.63744  -0.61823  -0.60491
  Beta  occ. eigenvalues --   -0.58521  -0.58417  -0.58154  -0.57723  -0.57258
  Beta  occ. eigenvalues --   -0.56538  -0.55440  -0.54738  -0.54577  -0.53859
  Beta  occ. eigenvalues --   -0.53079  -0.53009  -0.52609  -0.52176  -0.51558
  Beta  occ. eigenvalues --   -0.51356  -0.51132  -0.50205  -0.49971  -0.49745
  Beta  occ. eigenvalues --   -0.49695  -0.49552  -0.49327  -0.49136  -0.48591
  Beta  occ. eigenvalues --   -0.48057  -0.47831  -0.47491  -0.47145  -0.46497
  Beta  occ. eigenvalues --   -0.46345  -0.46120  -0.45663  -0.45491  -0.45187
  Beta  occ. eigenvalues --   -0.45102  -0.44885  -0.44734  -0.44517  -0.44431
  Beta  occ. eigenvalues --   -0.44054  -0.43997  -0.43894  -0.43859  -0.43362
  Beta  occ. eigenvalues --   -0.43062  -0.42944  -0.42856  -0.42704  -0.42487
  Beta  occ. eigenvalues --   -0.42294  -0.41935  -0.41662  -0.41286  -0.41083
  Beta  occ. eigenvalues --   -0.40883  -0.40451  -0.39980  -0.39819  -0.39623
  Beta  occ. eigenvalues --   -0.39223  -0.38978  -0.38741  -0.38453  -0.38396
  Beta  occ. eigenvalues --   -0.38229  -0.37306  -0.36880  -0.36674  -0.36469
  Beta  occ. eigenvalues --   -0.35757  -0.35612  -0.35162  -0.34533  -0.34240
  Beta  occ. eigenvalues --   -0.34079  -0.33904  -0.32910  -0.31788  -0.30666
  Beta  occ. eigenvalues --   -0.30250  -0.29448  -0.29431  -0.29184  -0.28574
  Beta  occ. eigenvalues --   -0.27034  -0.26658  -0.26443  -0.26318  -0.25559
  Beta  occ. eigenvalues --   -0.25011  -0.22807  -0.22128  -0.21560
  Beta virt. eigenvalues --   -0.11957  -0.10484  -0.08105  -0.06096  -0.04973
  Beta virt. eigenvalues --   -0.03332  -0.02217  -0.01585  -0.01450  -0.01071
  Beta virt. eigenvalues --   -0.00230   0.00135   0.00578   0.01303   0.01607

 Mulliken charges and spin densities:
               1          2
     1  C   -0.400421  -0.000254
     2  C    0.139554  -0.000147
     3  N   -0.190593   0.002455
     4  C   -0.218850   0.001522
     5  C    0.018946   0.010570
     6  N    0.016278  -0.042146
     7  C   -0.398528  -0.000342
     8  C    0.132171   0.000083
     9  N   -0.191645   0.002377
    10  C   -0.210823   0.001535
    11  C    0.005715   0.011478
    12  N    0.025523  -0.043019
    13  C   -0.515027  -0.008032
    14  C   -0.613042  -0.003181
    15  C   -0.506540  -0.006522
    16  C   -0.603149  -0.003801
    17  C    0.301632   0.003528
    18  C   -0.157815   0.014211
    19  C    0.009386  -0.005650
    20  C    0.189827   0.009557
    21  C   -0.409632  -0.000353
    22  C   -0.235533  -0.000996
    23  C   -0.137292   0.000596
    24  C    0.282568   0.000106
    25  O   -0.328809  -0.000010
    26  O   -0.438457  -0.000006
    27  C    0.310075   0.011137
    28  C   -0.016240  -0.003778
    29  C    0.010325   0.017341
    30  C    0.314591   0.003341
    31  C   -0.410918  -0.000321
    32  C   -0.355850  -0.001753
    33  C   -0.288292   0.000963
    34  C    0.315679   0.001811
    35  C   -0.214298   0.010452
    36  C    0.110691  -0.003156
    37  C    0.149405   0.009755
    38  C   -0.771821   0.002014
    39  C   -0.196120   0.000354
    40  C   -0.325578  -0.001381
    41  C    0.247965   0.007589
    42  C   -0.039542  -0.001782
    43  C   -0.018272   0.014639
    44  C    0.303023   0.003925
    45  C   -0.420761  -0.000705
    46  C   -0.333334  -0.001170
    47  C   -0.240995   0.000674
    48  C    0.305823   0.000119
    49  O   -0.336044   0.000042
    50  O   -0.402990   0.000023
    51  N    0.021867  -0.031437
    52  N    0.010626  -0.032073
    53  N    0.025671  -0.035611
    54  N    0.063945  -0.038622
    55  Fe  -0.312380   1.124780
    56  H    0.161023  -0.000010
    57  H    0.157321   0.000009
    58  H    0.154644  -0.000070
    59  H    0.183904  -0.000448
    60  H    0.199895  -0.000740
    61  H    0.157397   0.000006
    62  H    0.151409  -0.000047
    63  H    0.163372   0.000045
    64  H    0.171005  -0.000345
    65  H    0.200820  -0.000774
    66  H    0.145467   0.000174
    67  H    0.163781   0.000184
    68  H    0.186653   0.000223
    69  H    0.154268   0.000168
    70  H    0.149645  -0.000087
    71  H    0.144548  -0.000122
    72  H    0.159671  -0.000102
    73  H    0.136151   0.000026
    74  H    0.138527   0.000457
    75  H    0.141683   0.000077
    76  H    0.118875  -0.000027
    77  H    0.156812  -0.000103
    78  H    0.143429  -0.000032
    79  H    0.162201  -0.000108
    80  H    0.158020   0.001065
    81  H    0.157330   0.000001
    82  H    0.158707   0.000122
    83  H    0.293755  -0.000055
    84  H    0.292709   0.000081
    85  H    0.257698   0.000160
    86  H    0.141402  -0.000103
    87  H    0.115011   0.000026
    88  H    0.165267   0.000043
    89  H    0.150099  -0.000110
    90  H    0.151393   0.000013
    91  H    0.161058   0.000083
    92  H    0.126493   0.000108
    93  H    0.152449   0.000313
    94  H    0.148015  -0.000021
    95  H    0.158762  -0.000009
    96  H    0.389400  -0.000002
    97  H    0.375778  -0.000001
    98  H    0.286788  -0.000411
    99  H    0.285673  -0.000388
 Sum of Mulliken charges =   1.00000   1.00000

 Dipole moment (field-independent basis, Debye):
    X=             -2.4071    Y=             -0.2030    Z=             -1.0066  Tot=              2.6170
 Quadrupole moment (field-independent basis, Debye-Ang):
   XX=           -310.5520   YY=           -230.3655   ZZ=           -248.9670
   XY=            -30.8254   XZ=            -42.2685   YZ=              0.0534

 Normal termination of Gaussian 16 at Sun Oct 16 16:18:29 2022.
