 Gaussian 16, Revision A.03,
 Gaussian 16:  ES64L-G16RevA.03 25-Dec-2016

 ----------------------------------------------------------------------
 # PBE1PBE/def2TZVP empiricaldispersion=GD3BJ int=(grid=ultrafine) geom
 =check pop=nbo
 ----------------------------------------------------------------------

 ----------
 1drm_III_H
 ----------
 Structure from the checkpoint file:  "1drm_III_H.chk"
 Charge =  1 Multiplicity = 6

                         Standard orientation:
 ---------------------------------------------------------------------
 Center     Atomic      Atomic             Coordinates (Angstroms)
 Number     Number       Type             X           Y           Z
 ---------------------------------------------------------------------
      1          6           0       -1.131239   -1.830485    5.439987
      2          6           0       -1.273583   -1.064428    4.143753
      3          7           0       -1.820839    0.199580    4.043630
      4          6           0       -0.879682   -1.385500    2.882889
      5          6           0       -1.739390    0.610183    2.760300
      6          7           0       -1.178207   -0.307977    1.990809
      7         26           0       -0.933636   -0.056462   -0.107600
      8          6           0        2.491177    0.681681    0.071878
      9          6           0       -0.361600   -3.437758   -0.512035
     10          6           0       -4.128773   -0.659191   -1.119583
     11          6           0       -1.592933    3.387985    0.096321
     12          7           0        0.675452   -1.196588   -0.177292
     13          6           0        2.070118   -0.674044   -0.092725
     14          6           0        2.925176   -1.797215   -0.260569
     15          6           0        2.106334   -2.920942   -0.409620
     16          6           0        0.762633   -2.537964   -0.356589
     17          6           0        2.532451   -4.422787   -0.663620
     18          6           0        4.447444   -1.616867   -0.498741
     19          6           0        5.162547   -2.596475    0.138973
     20          6           0        6.533866   -2.640906   -0.387884
     21          8           0        7.399573   -2.534376    0.550848
     22          8           0        6.748551   -2.807573   -1.646386
     23          7           0       -2.031406   -1.608491   -0.592476
     24          6           0       -1.583912   -3.032035   -0.678672
     25          6           0       -2.654949   -3.918092   -0.865341
     26          6           0       -3.740850   -3.206399   -1.063934
     27          6           0       -3.395806   -1.732125   -0.900453
     28          6           0       -2.582868   -5.446412   -0.887283
     29          6           0       -5.065573   -3.903276   -1.330823
     30          6           0       -6.280066   -3.089301   -1.814611
     31          7           0       -2.460926    1.035707   -0.426196
     32          6           0       -3.698136    0.638070   -0.879217
     33          6           0       -4.547130    1.813154   -1.082251
     34          6           0       -3.848928    2.860019   -0.791307
     35          6           0       -2.587351    2.437439   -0.381308
     36          6           0       -6.064878    1.754859   -1.607828
     37          6           0       -4.069877    4.422235   -0.990125
     38          6           0       -5.294211    5.112928   -0.361198
     39          7           0        0.021874    1.597653    0.078434
     40          6           0       -0.375527    3.018401    0.198626
     41          6           0        0.790581    3.923289    0.427248
     42          6           0        1.873808    3.181125    0.507274
     43          6           0        1.496624    1.795753    0.236006
     44          6           0        0.759487    5.375560    0.605862
     45          6           0        3.418827    3.486200    0.840954
     46          6           0        4.250171    3.731435   -0.470891
     47          6           0        5.540488    3.506291   -1.158741
     48          8           0        5.386745    3.776098   -2.345632
     49          8           0        6.159471    2.520293   -0.778444
     50          1           0        4.693090    3.344747   -2.849992
     51          1           0        3.576989    3.327486   -1.197906
     52          1           0        4.185541    4.797404   -0.537469
     53          1           0        3.834238    2.652684    1.367818
     54          1           0        3.477776    4.356629    1.460453
     55          1           0        3.536926    0.908103    0.078365
     56          1           0        4.646753   -1.663530   -1.548978
     57          1           0        4.750691   -0.661011   -0.125536
     58          1           0        4.689738   -3.542761   -0.021941
     59          1           0        5.192043   -2.388346    1.188121
     60          1           0        7.413546   -3.174813    1.265862
     61          1           0        1.936087   -4.834469   -1.450874
     62          1           0        3.564893   -4.458330   -0.942369
     63          1           0        2.384645   -4.991571    0.230549
     64          1           0       -0.175424   -4.491170   -0.488353
     65          1           0       -3.184335   -5.820364   -1.689341
     66          1           0       -1.567816   -5.753598   -1.029434
     67          1           0       -2.946049   -5.833976    0.041584
     68          1           0       -6.500534    0.816037   -1.336321
     69          1           0       -6.626665    2.550284   -1.164438
     70          1           0       -6.077864    1.859448   -2.672625
     71          1           0       -5.116793   -0.796598   -1.506670
     72          1           0       -1.879567    4.384970    0.358544
     73          1           0       -0.236362    5.684049    0.846733
     74          1           0        1.420434    5.651373    1.400832
     75          1           0        1.071657    5.853015   -0.299392
     76          1           0       -1.437730   -2.844680    5.290412
     77          1           0       -0.109242   -1.809678    5.756198
     78          1           0       -1.746037   -1.379076    6.190421
     79          1           0       -0.415438   -2.307076    2.599911
     80          1           0       -2.085548    1.559827    2.409229
     81          1           0       -2.213363    0.724909    4.798584
     82          1           0       -5.153998   -4.959251   -1.182506
     83          1           0       -7.148078   -3.592896   -2.185888
     84          1           0       -6.255890   -2.020151   -1.779473
     85          1           0       -3.367869    4.993481   -1.560882
     86          1           0       -6.276737    4.730734   -0.544147
     87          1           0       -5.162359    5.975019    0.258732
 ---------------------------------------------------------------------

 SCF Done:  E(UPBE1PBE) =  -3361.78168413     A.U. after   45 cycles

 Alpha virt. eigenvalues --    0.50415   0.50546   0.50860   0.50989   0.51442
 Alpha virt. eigenvalues --    0.51657   0.51851   0.52130   0.52385   0.52610
 Alpha virt. eigenvalues --    0.52621   0.52934   0.53216   0.53762   0.54060

  Beta  occ. eigenvalues -- -256.55114 -30.28429 -26.11841 -26.11485 -26.11463
  Beta  occ. eigenvalues --  -19.32263 -19.31857 -19.25944 -19.25822 -14.55858
  Beta  occ. eigenvalues --  -14.51370 -14.50051 -14.49571 -14.49184 -14.48745
  Beta  occ. eigenvalues --  -10.42768 -10.42647 -10.40100 -10.38944 -10.37471
  Beta  occ. eigenvalues --  -10.37224 -10.36802 -10.36796 -10.36551 -10.36430
  Beta  occ. eigenvalues --  -10.36329 -10.35977 -10.35811 -10.35462 -10.35454
  Beta  occ. eigenvalues --  -10.35049 -10.34200 -10.34076 -10.34066 -10.33524
  Beta  occ. eigenvalues --  -10.33413 -10.33331 -10.33259 -10.33155 -10.32812
  Beta  occ. eigenvalues --  -10.32775 -10.32706 -10.32656 -10.32625 -10.32520
  Beta  occ. eigenvalues --  -10.32026 -10.31153 -10.31056 -10.31017 -10.30943
  Beta  occ. eigenvalues --  -10.30787 -10.30090 -10.28902  -3.57673  -2.32510
  Beta  occ. eigenvalues --   -2.31860  -2.31790  -1.25429  -1.21863  -1.16504
  Beta  occ. eigenvalues --   -1.11506  -1.09346  -1.08570  -1.07136  -1.05934
  Beta  occ. eigenvalues --   -1.04774  -1.01826  -0.95666  -0.94798  -0.93937
  Beta  occ. eigenvalues --   -0.93096  -0.92523  -0.92142  -0.91501  -0.90670
  Beta  occ. eigenvalues --   -0.89071  -0.88565  -0.87283  -0.85402  -0.84318
  Beta  occ. eigenvalues --   -0.83545  -0.83004  -0.82229  -0.81610  -0.81298
  Beta  occ. eigenvalues --   -0.79656  -0.78906  -0.77637  -0.76990  -0.75661
  Beta  occ. eigenvalues --   -0.75445  -0.74753  -0.73111  -0.72857  -0.72360
  Beta  occ. eigenvalues --   -0.71111  -0.70398  -0.67974  -0.67501  -0.66595
  Beta  occ. eigenvalues --   -0.65988  -0.65078  -0.64535  -0.63272  -0.63001
  Beta  occ. eigenvalues --   -0.61558  -0.61209  -0.60852  -0.60151  -0.59907
  Beta  occ. eigenvalues --   -0.59661  -0.58655  -0.58365  -0.58208  -0.58128
  Beta  occ. eigenvalues --   -0.57525  -0.56719  -0.55905  -0.55762  -0.55475
  Beta  occ. eigenvalues --   -0.55281  -0.54955  -0.54702  -0.54216  -0.54024
  Beta  occ. eigenvalues --   -0.53918  -0.53671  -0.53610  -0.53272  -0.53143
  Beta  occ. eigenvalues --   -0.52990  -0.52879  -0.52361  -0.52229  -0.51778
  Beta  occ. eigenvalues --   -0.51551  -0.51451  -0.51028  -0.51001  -0.50536
  Beta  occ. eigenvalues --   -0.50364  -0.50217  -0.49687  -0.49375  -0.49187
  Beta  occ. eigenvalues --   -0.49043  -0.48695  -0.48536  -0.48149  -0.47537
  Beta  occ. eigenvalues --   -0.46922  -0.46824  -0.46435  -0.46113  -0.45549
  Beta  occ. eigenvalues --   -0.45381  -0.45293  -0.44760  -0.44241  -0.44042
  Beta  occ. eigenvalues --   -0.43913  -0.43197  -0.42968  -0.42080  -0.40963
  Beta  occ. eigenvalues --   -0.40316  -0.40150  -0.39967  -0.39172  -0.38410
  Beta  occ. eigenvalues --   -0.37901  -0.36453  -0.35562  -0.35264  -0.34445
  Beta  occ. eigenvalues --   -0.34227  -0.33433  -0.31871  -0.31026  -0.29163
  Beta virt. eigenvalues --   -0.22173  -0.20606  -0.18957  -0.17146  -0.17018
  Beta virt. eigenvalues --   -0.16305  -0.13834  -0.13434  -0.12646  -0.10115
  Beta virt. eigenvalues --   -0.09634  -0.08970  -0.08803  -0.07096  -0.06446

 Mulliken charges and spin densities:
               1          2
     1  C   -0.349529   0.001173
     2  C    0.135084   0.005311
     3  N   -0.207581   0.003287
     4  C   -0.205044   0.002732
     5  C    0.030663   0.005476
     6  N   -0.025869   0.071033
     7  Fe   0.020918   4.347968
     8  C   -0.520471  -0.010902
     9  C   -0.514248  -0.041105
    10  C   -0.399212  -0.014066
    11  C   -0.541737   0.009636
    12  N   -0.070885   0.060437
    13  C    0.292665   0.040567
    14  C   -0.083302   0.027341
    15  C   -0.009291   0.030886
    16  C    0.194305   0.038156
    17  C   -0.387147  -0.000628
    18  C   -0.256154  -0.001547
    19  C   -0.204496   0.000667
    20  C    0.371443   0.000066
    21  O   -0.348287   0.000087
    22  O   -0.360238   0.000326
    23  N   -0.077289   0.041276
    24  C    0.327320   0.043703
    25  C   -0.062301  -0.012315
    26  C    0.028971   0.048404
    27  C    0.268229  -0.002215
    28  C   -0.401942   0.002249
    29  C   -0.214445  -0.082877
    30  C   -0.258897   0.111787
    31  N   -0.058098   0.067676
    32  C    0.290807   0.007469
    33  C   -0.075799  -0.044682
    34  C    0.011330   0.104984
    35  C    0.257066  -0.017980
    36  C   -0.363459   0.004024
    37  C   -0.250908  -0.759339
    38  C   -0.283307   0.812134
    39  N   -0.081296   0.051438
    40  C    0.349828  -0.012083
    41  C   -0.021275   0.044882
    42  C   -0.087407  -0.001207
    43  C    0.231358   0.057808
    44  C   -0.406177  -0.001449
    45  C   -0.116119   0.001284
    46  C   -0.388154  -0.000019
    47  C    0.307682   0.000065
    48  O   -0.309684   0.000034
    49  O   -0.291202  -0.000001
    50  H    0.362561   0.000008
    51  H    0.111087   0.000108
    52  H    0.142102   0.000062
    53  H    0.148334  -0.000014
    54  H    0.143757   0.000243
    55  H    0.197174   0.000610
    56  H    0.151848   0.001555
    57  H    0.117639   0.000229
    58  H    0.101896   0.000044
    59  H    0.107461   0.000059
    60  H    0.357541  -0.000006
    61  H    0.153119   0.000556
    62  H    0.156017   0.000312
    63  H    0.147600   0.001353
    64  H    0.145861   0.001878
    65  H    0.157505  -0.000307
    66  H    0.132966  -0.000181
    67  H    0.165595  -0.000268
    68  H    0.128821  -0.000204
    69  H    0.135287  -0.000717
    70  H    0.162877  -0.001360
    71  H    0.079851   0.000706
    72  H    0.169345   0.000052
    73  H    0.131498   0.000435
    74  H    0.149091   0.001270
    75  H    0.163843   0.002675
    76  H    0.158669   0.000026
    77  H    0.160677   0.000083
    78  H    0.136394   0.000224
    79  H    0.152083   0.000042
    80  H    0.181811   0.000468
    81  H    0.250214   0.001257
    82  H    0.166707   0.004216
    83  H    0.159920  -0.004820
    84  H    0.131547  -0.004898
    85  H    0.179937   0.040866
    86  H    0.155215  -0.044497
    87  H    0.159733  -0.044018
 Sum of Mulliken charges =   1.00000   5.00000

 Dipole moment (field-independent basis, Debye):
    X=             -9.5446    Y=              0.4040    Z=              8.5574  Tot=             12.8254
 Quadrupole moment (field-independent basis, Debye-Ang):
   XX=           -260.0130   YY=           -197.3308   ZZ=           -244.6777
   XY=             -4.4390   XZ=             21.3980   YZ=             -9.4703

 Summary of Natural Population Analysis:

                                       Natural Population
                Natural  -----------------------------------------------
    Atom  No    Charge         Core      Valence    Rydberg      Total
 -----------------------------------------------------------------------
      C    1   -0.32002      0.99969     2.31717    0.00315     3.32002
      C    2    0.06456      0.99953     1.92727    0.00864     2.93544
      N    3   -0.23817      0.99970     2.72875    0.00972     3.73817
      C    4   -0.04009      0.99943     2.03243    0.00822     3.04009
      C    5    0.10648      0.99967     1.88369    0.01015     2.89352
      N    6   -0.15832      0.99971     2.63937    0.01924     3.65832
     Fe    7    2.56298      8.99269     1.42598    0.01835    10.43702
      C    8   -0.11461      0.99953     2.10842    0.00665     3.11461
      C    9   -0.12559      0.99936     2.11796    0.00827     3.12559
      C   10   -0.12308      0.99937     2.11498    0.00873     3.12308
      C   11   -0.11070      0.99927     2.10261    0.00883     3.11070
      N   12   -0.20243      0.99969     2.68509    0.01766     3.70243
      C   13    0.09607      0.99947     1.89549    0.00898     2.90393
      C   14    0.01395      0.99942     1.97749    0.00913     2.98605
      C   15    0.00791      0.99940     1.98481    0.00788     2.99209
      C   16    0.10525      0.99949     1.88526    0.01000     2.89475
      C   17   -0.31775      0.99968     2.31464    0.00342     3.31775
      C   18   -0.20892      0.99955     2.20116    0.00821     3.20892
      C   19   -0.26287      0.99952     2.25297    0.01038     3.26287
      C   20    0.39137      0.99967     1.59293    0.01602     2.60863
      O   21   -0.33607      0.99981     3.32198    0.01428     4.33607
      O   22   -0.27841      0.99991     3.26800    0.01051     4.27841
      N   23   -0.19845      0.99973     2.68094    0.01778     3.69845
      C   24    0.09804      0.99926     1.89310    0.00960     2.90196
      C   25   -0.00810      0.99928     1.99987    0.00895     3.00810
      C   26   -0.00427      0.99928     1.99510    0.00988     3.00427
      C   27    0.09753      0.99944     1.89320    0.00983     2.90247
      C   28   -0.31657      0.99970     2.31080    0.00607     3.31657
      C   29   -0.13750      0.99971     2.13160    0.00619     3.13750
      C   30   -0.11124      0.99975     2.10695    0.00455     3.11124
      N   31   -0.19625      0.99966     2.67911    0.01747     3.69625
      C   32    0.09670      0.99953     1.89399    0.00978     2.90330
      C   33   -0.01176      0.99920     2.00370    0.00886     3.01176
      C   34   -0.01436      0.99907     2.00391    0.01137     3.01436
      C   35    0.08029      0.99948     1.91017    0.01007     2.91971
      C   36   -0.31058      0.99968     2.30752    0.00338     3.31058
      C   37   -0.43094      0.99974     2.42450    0.00670     3.43094
      C   38    0.20665      0.99975     1.78940    0.00421     2.79335
      N   39   -0.21023      0.99973     2.69330    0.01720     3.71023
      C   40    0.07545      0.99927     1.91482    0.01045     2.92455
      C   41    0.02354      0.99935     1.96842    0.00870     2.97646
      C   42   -0.01697      0.99925     2.00823    0.00949     3.01697
      C   43    0.13166      0.99957     1.86035    0.00842     2.86834
      C   44   -0.32166      0.99968     2.31532    0.00666     3.32166
      C   45   -0.20153      0.99963     2.19535    0.00655     3.20153
      C   46   -0.25974      0.99952     2.24928    0.01094     3.25974
      C   47    0.38362      0.99952     1.59775    0.01911     2.61638
      O   48   -0.33902      0.99976     3.32343    0.01583     4.33902
      O   49   -0.26188      0.99988     3.24965    0.01235     4.26188
      H   50    0.26158      0.00000     0.23736    0.00105     0.23842
      H   51    0.10338      0.00000     0.39547    0.00115     0.39662
      H   52    0.10915      0.00000     0.39017    0.00069     0.39085
      H   53    0.11255      0.00000     0.38616    0.00129     0.38745
      H   54    0.11276      0.00000     0.38654    0.00070     0.38724
      H   55    0.12221      0.00000     0.37672    0.00107     0.37779
      H   56    0.12993      0.00000     0.36924    0.00083     0.37007
      H   57    0.10864      0.00000     0.39050    0.00087     0.39136
      H   58    0.11743      0.00000     0.38180    0.00077     0.38257
      H   59    0.10514      0.00000     0.39421    0.00066     0.39486
      H   60    0.25749      0.00000     0.24152    0.00099     0.24251
      H   61    0.11472      0.00000     0.38462    0.00066     0.38528
      H   62    0.11242      0.00000     0.38689    0.00069     0.38758
      H   63    0.11302      0.00000     0.38630    0.00068     0.38698
      H   64    0.11680      0.00000     0.38184    0.00136     0.38320
      H   65    0.11839      0.00000     0.38098    0.00063     0.38161
      H   66    0.11069      0.00000     0.38885    0.00046     0.38931
      H   67    0.11735      0.00000     0.38203    0.00062     0.38265
      H   68    0.10802      0.00000     0.39139    0.00058     0.39198
      H   69    0.11254      0.00000     0.38666    0.00080     0.38746
      H   70    0.11561      0.00000     0.38371    0.00068     0.38439
      H   71    0.11303      0.00000     0.38551    0.00146     0.38697
      H   72    0.12283      0.00000     0.37591    0.00126     0.37717
      H   73    0.11177      0.00000     0.38779    0.00044     0.38823
      H   74    0.11890      0.00000     0.38045    0.00065     0.38110
      H   75    0.12203      0.00000     0.37731    0.00066     0.37797
      H   76    0.12100      0.00000     0.37849    0.00051     0.37900
      H   77    0.11962      0.00000     0.37980    0.00058     0.38038
      H   78    0.11331      0.00000     0.38613    0.00057     0.38669
      H   79    0.11524      0.00000     0.38413    0.00063     0.38476
      H   80    0.11318      0.00000     0.38607    0.00076     0.38682
      H   81    0.21430      0.00000     0.28494    0.00076     0.28570
      H   82    0.11192      0.00000     0.38725    0.00083     0.38808
      H   83    0.10309      0.00000     0.39628    0.00063     0.39691
      H   84    0.08592      0.00000     0.41334    0.00074     0.41408
      H   85    0.12148      0.00000     0.37767    0.00085     0.37852
      H   86    0.07728      0.00000     0.42162    0.00110     0.42272
      H   87    0.08128      0.00000     0.41783    0.00088     0.41872
 =======================================================================
   * Total *    3.00000     56.97097   122.50170    0.52733   180.00000

 Normal termination of Gaussian 16 at Tue Nov  8 02:26:34 2022.
