 Gaussian 16, Revision A.03,
 Gaussian 16:  ES64L-G16RevA.03 25-Dec-2016

 ----------------------------------------------------------------------
 # PBE1PBE/def2TZVP empiricaldispersion=GD3BJ scf=maxcycle=999 geom=che
 ck guess=read pop=nbo
 ----------------------------------------------------------------------

 ---------
 1cpo_II_Q
 ---------
 Structure from the checkpoint file:  "1cpo_II_Qn.chk"
 Charge =  0 Multiplicity = 5

                         Standard orientation:
 ---------------------------------------------------------------------
 Center     Atomic      Atomic             Coordinates (Angstroms)
 Number     Number       Type             X           Y           Z
 ---------------------------------------------------------------------
      1          6           0       -0.115849   -1.148897    3.136053
      2         16           0       -1.612746   -0.207226    2.933680
      3          6           0        2.342646   -0.261906   -0.131958
      4          6           0       -1.321712   -3.437900   -0.186582
      5          6           0       -4.449186    0.212277   -0.495150
      6          6           0       -0.809233    3.428447   -0.174485
      7          6           0        1.613531   -1.453944   -0.057399
      8          6           0        2.185316   -2.782506   -0.041826
      9          6           0        1.164868   -3.659898   -0.102025
     10          6           0       -0.052567   -2.893977   -0.084100
     11          6           0        1.250531   -5.163631   -0.185227
     12          6           0        3.653789   -3.080560    0.045366
     13          6           0        4.330407   -2.787000   -1.289823
     14          6           0        5.769333   -2.392901   -1.116145
     15          8           0        6.041716   -1.178619   -0.987492
     16          8           0        6.640275   -3.291130   -1.124667
     17          6           0       -2.515407   -2.735933   -0.177394
     18          6           0       -3.831718   -3.336575   -0.249807
     19          6           0       -4.719520   -2.321114   -0.354182
     20          6           0       -3.947882   -1.078272   -0.330398
     21          6           0       -4.133960   -4.843753   -0.192977
     22          6           0       -6.065936   -2.685291   -0.455015
     23          6           0       -7.169424   -1.862086   -0.383263
     24          6           0       -3.727715    1.408606   -0.386405
     25          6           0       -4.290309    2.723905   -0.590396
     26          6           0       -3.315342    3.623795   -0.286635
     27          6           0       -2.088852    2.877896   -0.155519
     28          6           0       -5.695986    2.953308   -1.123921
     29          6           0       -3.322984    5.011859   -0.116632
     30          6           0       -4.356348    5.779888   -0.669997
     31          6           0        0.383121    2.717050   -0.124147
     32          6           0        1.706728    3.282583   -0.296643
     33          6           0        2.585143    2.251579   -0.281039
     34          6           0        1.814914    1.031950   -0.121849
     35          6           0        2.024383    4.759810   -0.503321
     36          6           0        4.093756    2.339944   -0.451643
     37          6           0        4.937776    2.239048    0.823023
     38          6           0        6.432591    2.299879    0.561247
     39          8           0        7.195852    2.503501    1.522151
     40          8           0        6.854447    2.142581   -0.597814
     41          7           0        0.238566   -1.546725    0.036221
     42          7           0       -2.629332   -1.369575   -0.065958
     43          7           0       -2.383171    1.528245   -0.093142
     44          7           0        0.473482    1.345697   -0.009137
     45         26           0       -1.093653   -0.006419    0.109102
     46          1           0       -0.167565   -1.709785    4.045795
     47          1           0       -0.001656   -1.819129    2.309827
     48          1           0        0.721494   -0.483839    3.174189
     49          1           0       -2.322685   -0.274179    4.032590
     50          1           0        6.723937   -0.902404   -0.371147
     51          1           0        4.281228   -3.661646   -1.904212
     52          1           0        3.807992   -1.990053   -1.776504
     53          1           0        3.791667   -4.112340    0.292996
     54          1           0        4.094165   -2.471597    0.807031
     55          1           0        7.590927    1.549708   -0.764243
     56          1           0        4.671119    3.044388    1.475112
     57          1           0        4.712737    1.313535    1.310550
     58          1           0        4.397477    1.553988   -1.111133
     59          1           0        4.318058    3.274288   -0.922376
     60          1           0        3.406639   -0.349579   -0.203606
     61          1           0        1.451826   -5.563721    0.786528
     62          1           0        0.322230   -5.554313   -0.546510
     63          1           0        2.038299   -5.439501   -0.854717
     64          1           0       -1.386316   -4.501683   -0.281936
     65          1           0        3.078970    4.914411   -0.409282
     66          1           0        1.705553    5.059994   -1.479609
     67          1           0        1.511494    5.341462    0.233921
     68          1           0       -0.738376    4.494490   -0.233057
     69          1           0       -6.410815    2.629920   -0.396364
     70          1           0       -5.836240    3.995198   -1.323157
     71          1           0       -5.829826    2.396197   -2.027588
     72          1           0       -5.489995    0.297818   -0.728170
     73          1           0       -3.873950   -5.223488    0.772992
     74          1           0       -5.176600   -5.005394   -0.370950
     75          1           0       -3.561572   -5.350775   -0.941443
     76          1           0       -2.539836    5.487499    0.435948
     77          1           0       -5.112880    6.194330   -0.036911
     78          1           0       -4.388813    5.951852   -1.725589
     79          1           0       -7.449704   -1.423330    0.551529
     80          1           0       -7.745627   -1.661908   -1.262364
     81          1           0       -6.262987   -3.726139   -0.605702
 ---------------------------------------------------------------------

 SCF Done:  E(UPBE1PBE) =  -3535.35221551     A.U. after   99 cycles

 Alpha virt. eigenvalues --    0.33687   0.34066   0.34590   0.34850   0.34878
 Alpha virt. eigenvalues --    0.35043   0.35294   0.35527   0.35654   0.36034
 Alpha virt. eigenvalues --    0.36583   0.36736   0.36962   0.37011   0.37462

  Beta  occ. eigenvalues -- -256.34936 -89.00902 -30.09304 -25.92842 -25.92782
  Beta  occ. eigenvalues --  -25.91105 -19.28320 -19.27723 -19.18726 -19.18712
  Beta  occ. eigenvalues --  -14.39400 -14.39394 -14.38813 -14.37672 -10.36337
  Beta  occ. eigenvalues --  -10.36226 -10.26741 -10.26734 -10.26336 -10.26174
  Beta  occ. eigenvalues --  -10.26108 -10.25983 -10.25550 -10.25361 -10.24217
  Beta  occ. eigenvalues --  -10.24191 -10.23761 -10.23759 -10.23719 -10.23636
  Beta  occ. eigenvalues --  -10.23542 -10.23445 -10.23403 -10.23389 -10.23370
  Beta  occ. eigenvalues --  -10.23280 -10.23215 -10.23176 -10.23164 -10.22570
  Beta  occ. eigenvalues --  -10.22470 -10.22393 -10.22355 -10.22323 -10.21626
  Beta  occ. eigenvalues --  -10.21591 -10.21277 -10.21211 -10.20476  -7.99028
  Beta  occ. eigenvalues --   -5.92718  -5.92343  -5.91810  -3.41648  -2.18375
  Beta  occ. eigenvalues --   -2.17808  -2.14007  -1.18890  -1.18746  -1.03755
  Beta  occ. eigenvalues --   -1.03494  -0.99087  -0.98209  -0.97900  -0.97128
  Beta  occ. eigenvalues --   -0.85759  -0.84850  -0.84582  -0.84240  -0.83353
  Beta  occ. eigenvalues --   -0.81859  -0.81726  -0.80697  -0.80600  -0.79992
  Beta  occ. eigenvalues --   -0.77769  -0.76552  -0.75937  -0.75156  -0.74264
  Beta  occ. eigenvalues --   -0.72660  -0.71844  -0.71734  -0.70979  -0.70184
  Beta  occ. eigenvalues --   -0.67826  -0.66909  -0.66433  -0.66230  -0.66111
  Beta  occ. eigenvalues --   -0.62886  -0.61680  -0.59835  -0.58791  -0.57142
  Beta  occ. eigenvalues --   -0.56057  -0.55298  -0.54866  -0.53747  -0.53179
  Beta  occ. eigenvalues --   -0.53027  -0.52856  -0.52358  -0.52222  -0.52031
  Beta  occ. eigenvalues --   -0.50460  -0.50364  -0.49731  -0.49624  -0.49049
  Beta  occ. eigenvalues --   -0.48396  -0.47430  -0.47269  -0.47132  -0.46247
  Beta  occ. eigenvalues --   -0.46003  -0.45806  -0.45546  -0.45395  -0.44786
  Beta  occ. eigenvalues --   -0.44661  -0.44331  -0.44144  -0.43829  -0.43713
  Beta  occ. eigenvalues --   -0.43249  -0.43051  -0.42763  -0.42013  -0.41931
  Beta  occ. eigenvalues --   -0.41687  -0.41374  -0.41101  -0.41040  -0.40759
  Beta  occ. eigenvalues --   -0.40572  -0.40396  -0.40095  -0.39699  -0.39651
  Beta  occ. eigenvalues --   -0.39407  -0.39032  -0.38569  -0.38451  -0.38284
  Beta  occ. eigenvalues --   -0.37473  -0.37353  -0.37217  -0.36848  -0.36660
  Beta  occ. eigenvalues --   -0.36112  -0.33927  -0.33833  -0.33439  -0.33346
  Beta  occ. eigenvalues --   -0.32923  -0.32369  -0.31903  -0.30127  -0.29202
  Beta  occ. eigenvalues --   -0.28908  -0.28747  -0.27872  -0.27241  -0.26342
  Beta  occ. eigenvalues --   -0.25294  -0.24261  -0.22636  -0.21221  -0.20436
  Beta  occ. eigenvalues --   -0.19768  -0.16206
  Beta virt. eigenvalues --   -0.12508  -0.08101  -0.07471  -0.05012  -0.04291
  Beta virt. eigenvalues --   -0.02757  -0.01784  -0.01448  -0.00726  -0.00116
  Beta virt. eigenvalues --    0.00163   0.02842   0.02910   0.03314   0.03757

 Mulliken charges and spin densities:
               1          2
     1  C   -0.296248  -0.001686
     2  S   -0.227839   0.006767
     3  C   -0.524872   0.020021
     4  C   -0.488040  -0.019193
     5  C   -0.533548   0.089453
     6  C   -0.499703  -0.006479
     7  C    0.293013   0.008695
     8  C    0.010875   0.008465
     9  C   -0.054718  -0.000541
    10  C    0.351377   0.023078
    11  C   -0.421327  -0.000342
    12  C   -0.360500  -0.001328
    13  C   -0.159771   0.000368
    14  C    0.263438   0.000160
    15  O   -0.341342  -0.000013
    16  O   -0.367614   0.000085
    17  C    0.261012   0.022210
    18  C   -0.076725   0.036731
    19  C    0.055704   0.069791
    20  C    0.216138  -0.022419
    21  C   -0.351500  -0.002041
    22  C   -0.107603  -0.124665
    23  C   -0.337063   0.969350
    24  C    0.319666   0.007858
    25  C   -0.126308   0.061710
    26  C   -0.001770   0.073026
    27  C    0.308671  -0.006167
    28  C   -0.385819   0.002908
    29  C   -0.134112  -0.182386
    30  C   -0.321079   1.003653
    31  C    0.294023   0.003470
    32  C   -0.046860   0.007121
    33  C    0.065443  -0.004554
    34  C    0.279344   0.005494
    35  C   -0.394491  -0.000679
    36  C   -0.404952  -0.000290
    37  C   -0.191238  -0.000215
    38  C    0.226643  -0.000037
    39  O   -0.345799  -0.000001
    40  O   -0.320985  -0.000000
    41  N   -0.201540  -0.047682
    42  N   -0.162527  -0.021917
    43  N   -0.093609  -0.064915
    44  N   -0.186835  -0.040596
    45  Fe   0.124091   2.186268
    46  H    0.145018  -0.000784
    47  H    0.143172   0.000719
    48  H    0.137383   0.000040
    49  H    0.145830   0.009180
    50  H    0.340974   0.000047
    51  H    0.129935  -0.000002
    52  H    0.152088   0.000013
    53  H    0.152885  -0.000017
    54  H    0.135078   0.000432
    55  H    0.344407  -0.000005
    56  H    0.140136   0.000010
    57  H    0.134982   0.000104
    58  H    0.136352   0.000078
    59  H    0.131949  -0.000124
    60  H    0.160634  -0.001410
    61  H    0.150468   0.000204
    62  H    0.130798  -0.000014
    63  H    0.141495   0.000090
    64  H    0.110224   0.000629
    65  H    0.128102  -0.000073
    66  H    0.150306   0.000415
    67  H    0.138760   0.000403
    68  H    0.114757   0.001256
    69  H    0.129965   0.001149
    70  H    0.142585  -0.003373
    71  H    0.136091   0.006319
    72  H    0.154543  -0.006219
    73  H    0.146178   0.002007
    74  H    0.114720  -0.000243
    75  H    0.136435   0.001615
    76  H    0.139868   0.051762
    77  H    0.146079  -0.045749
    78  H    0.151058  -0.043860
    79  H    0.149023  -0.039131
    80  H    0.144090  -0.041810
    81  H    0.110533   0.047810
 Sum of Mulliken charges =  -0.00000   4.00000

 Dipole moment (field-independent basis, Debye):
    X=             -2.4742    Y=             -1.1631    Z=             -0.4123  Tot=              2.7649
 Quadrupole moment (field-independent basis, Debye-Ang):
   XX=           -289.1305   YY=           -261.2537   ZZ=           -278.6090
   XY=             10.4310   XZ=             -9.6450   YZ=            -11.9079

 Summary of Natural Population Analysis:

                                       Natural Population
                Natural  -----------------------------------------------
    Atom  No    Charge         Core      Valence    Rydberg      Total
 -----------------------------------------------------------------------
      C    1   -0.37128      0.99965     2.36268    0.00895     3.37128
      S    2    0.00533      4.99967     2.97795    0.01705     7.99467
      C    3   -0.13247      0.99951     2.12440    0.00857     3.13247
      C    4   -0.10253      0.99949     2.09491    0.00813     3.10253
      C    5   -0.10680      0.99951     2.09888    0.00841     3.10680
      C    6   -0.13010      0.99950     2.12256    0.00804     3.13010
      C    7    0.09098      0.99954     1.89927    0.01021     2.90902
      C    8   -0.02166      0.99942     2.01241    0.00983     3.02166
      C    9   -0.00411      0.99941     1.99628    0.00842     3.00411
      C   10    0.07027      0.99952     1.91918    0.01103     2.92973
      C   11   -0.31899      0.99970     2.31536    0.00394     3.31899
      C   12   -0.20875      0.99966     2.20187    0.00722     3.20875
      C   13   -0.24883      0.99962     2.24047    0.00873     3.24883
      C   14    0.38134      0.99975     1.60049    0.01841     2.61866
      O   15   -0.33354      0.99980     3.31943    0.01431     4.33354
      O   16   -0.29824      0.99989     3.28634    0.01200     4.29824
      C   17    0.07003      0.99954     1.92006    0.01037     2.92997
      C   18    0.03542      0.99943     1.95633    0.00882     2.96458
      C   19   -0.02508      0.99934     2.01479    0.01094     3.02508
      C   20    0.09581      0.99956     1.89462    0.01001     2.90419
      C   21   -0.31797      0.99969     2.31427    0.00400     3.31797
      C   22   -0.12944      0.99962     2.11925    0.01057     3.12944
      C   23    0.27453      0.99967     1.72032    0.00549     2.72547
      C   24    0.09486      0.99955     1.89563    0.00997     2.90514
      C   25   -0.00724      0.99945     1.99881    0.00899     3.00724
      C   26   -0.01760      0.99942     2.00742    0.01076     3.01760
      C   27    0.10552      0.99955     1.88466    0.01026     2.89448
      C   28   -0.31256      0.99969     2.30928    0.00358     3.31256
      C   29   -0.16898      0.99962     2.15861    0.01075     3.16898
      C   30    0.29972      0.99970     1.69566    0.00492     2.70028
      C   31    0.08216      0.99954     1.90822    0.01007     2.91784
      C   32    0.00133      0.99942     1.99107    0.00817     2.99867
      C   33   -0.02323      0.99941     2.01413    0.00969     3.02323
      C   34    0.09447      0.99955     1.89603    0.00995     2.90553
      C   35   -0.31987      0.99970     2.31658    0.00359     3.31987
      C   36   -0.21436      0.99967     2.20802    0.00667     3.21436
      C   37   -0.25001      0.99962     2.24202    0.00836     3.25001
      C   38    0.37987      0.99977     1.60149    0.01887     2.62013
      O   39   -0.29459      0.99989     3.28238    0.01232     4.29459
      O   40   -0.33177      0.99980     3.31743    0.01454     4.33177
      N   41   -0.25538      0.99970     2.73463    0.02105     3.75538
      N   42   -0.24526      0.99969     2.72573    0.01983     3.74526
      N   43   -0.23995      0.99969     2.72010    0.02016     3.73995
      N   44   -0.25403      0.99970     2.73455    0.01978     3.75403
     Fe   45    1.40212      8.99573     2.59030    0.01186    11.59788
      H   46    0.11332      0.00000     0.38622    0.00046     0.38668
      H   47    0.12116      0.00000     0.37799    0.00085     0.37884
      H   48    0.11123      0.00000     0.38807    0.00070     0.38877
      H   49    0.07614      0.00000     0.42102    0.00283     0.42386
      H   50    0.25420      0.00000     0.24408    0.00171     0.24580
      H   51    0.11944      0.00000     0.37991    0.00065     0.38056
      H   52    0.11351      0.00000     0.38580    0.00069     0.38649
      H   53    0.11574      0.00000     0.38360    0.00066     0.38426
      H   54    0.10875      0.00000     0.39037    0.00088     0.39125
      H   55    0.25679      0.00000     0.24170    0.00151     0.24321
      H   56    0.12034      0.00000     0.37897    0.00069     0.37966
      H   57    0.11862      0.00000     0.38066    0.00072     0.38138
      H   58    0.11162      0.00000     0.38722    0.00115     0.38838
      H   59    0.10806      0.00000     0.39088    0.00106     0.39194
      H   60    0.10841      0.00000     0.39041    0.00118     0.39159
      H   61    0.11302      0.00000     0.38620    0.00078     0.38698
      H   62    0.10990      0.00000     0.38949    0.00061     0.39010
      H   63    0.11142      0.00000     0.38785    0.00074     0.38858
      H   64    0.10754      0.00000     0.39105    0.00141     0.39246
      H   65    0.10922      0.00000     0.39011    0.00067     0.39078
      H   66    0.11362      0.00000     0.38560    0.00078     0.38638
      H   67    0.11236      0.00000     0.38693    0.00071     0.38764
      H   68    0.11015      0.00000     0.38852    0.00133     0.38985
      H   69    0.10864      0.00000     0.39030    0.00106     0.39136
      H   70    0.11128      0.00000     0.38804    0.00068     0.38872
      H   71    0.11244      0.00000     0.38679    0.00077     0.38756
      H   72    0.11145      0.00000     0.38734    0.00121     0.38855
      H   73    0.11454      0.00000     0.38474    0.00073     0.38546
      H   74    0.10599      0.00000     0.39321    0.00079     0.39401
      H   75    0.11243      0.00000     0.38687    0.00070     0.38757
      H   76    0.13112      0.00000     0.36807    0.00081     0.36888
      H   77    0.07756      0.00000     0.42126    0.00117     0.42244
      H   78    0.07954      0.00000     0.41925    0.00120     0.42046
      H   79    0.08431      0.00000     0.41437    0.00132     0.41569
      H   80    0.08235      0.00000     0.41650    0.00115     0.41765
      H   81    0.12463      0.00000     0.37433    0.00104     0.37537
 =======================================================================
   * Total *    2.00000     56.97836   114.50864    0.51299   172.00000

 Normal termination of Gaussian 16 at Wed Dec 28 19:46:08 2022.
