 Gaussian 16, Revision A.03,

 ---------------------------------------------------------------------
 # polar def2tzvp empiricaldispersion=gd3bj int=grid=ultrafine pbe1pbe
 ---------------------------------------------------------------------

 ---------
 1qpu_II_S
 ---------
 Symbolic Z-matrix:
 Charge =  0 Multiplicity = 1

 SCF Done:  E(RPBE1PBE) =  -3879.19568302     A.U. after   30 cycles

  Exact polarizability: 945.053 -12.216 870.235  37.516  -7.100 427.371
 Approx polarizability:1693.803 -30.4661700.797 115.619  -3.960 688.170

 Normal termination of Gaussian 16 at Sat Jan  7 09:07:56 2023.
 Gaussian 16:  ES64L-G16RevA.03 25-Dec-2016

 ----------------------------------------------------------------------
 # PBE1PBE/def2TZVP empiricaldispersion=GD3BJ int=(grid=ultrafine) geom
 =check guess=read scrf=(smd,solvent=Chloroform)
 ----------------------------------------------------------------------

 --------------
 1qpu_II_S_solv
 --------------
 Structure from the checkpoint file:  "1qpu_II_S.chk"
 Charge =  0 Multiplicity = 1

                         Standard orientation:
 ---------------------------------------------------------------------
 Center     Atomic      Atomic             Coordinates (Angstroms)
 Number     Number       Type             X           Y           Z
 ---------------------------------------------------------------------
      1          6           0        1.825752    1.252355   -3.086128
      2          6           0        1.072856   -0.076888   -2.980033
      3         16           0       -0.585717    0.082651   -2.258544
      4          6           0       -1.628464   -1.060936   -3.185511
      5          1           0        2.798313    1.079553   -3.497423
      6          1           0        1.922062    1.686380   -2.112862
      7          1           0        0.945707   -0.443544   -3.996958
      8          1           0        1.667100   -0.806443   -2.433499
      9          1           0       -1.540405   -0.814697   -4.243691
     10          1           0       -1.322463   -2.090490   -3.012380
     11          1           0       -2.664881   -0.917830   -2.881459
     12          6           0       -1.977414   -1.100435    5.408808
     13          6           0       -1.484939   -0.518347    4.102313
     14          7           0       -0.620788    0.546696    4.063641
     15          6           0       -1.814848   -0.836854    2.805355
     16          6           0       -0.447308    0.880897    2.782705
     17          7           0       -1.120563    0.052896    1.966974
     18          1           0       -2.597910   -0.384887    5.906679
     19          1           0       -1.140219   -1.340335    6.030461
     20          1           0       -0.341983    1.091086    4.866984
     21          1           0       -2.490618   -1.616519    2.488413
     22          1           0        0.158643    1.717861    2.478881
     23          6           0        2.282875   -0.649626    0.218819
     24          6           0       -0.180020    3.497667   -0.067466
     25          6           0       -4.304226    0.845468   -0.325393
     26          6           0       -1.742306   -3.326906   -0.152844
     27          6           0        1.939749    0.658979    0.232795
     28          6           0        2.921456    1.683261    0.383036
     29          6           0        2.254750    2.865283    0.265184
     30          6           0        0.846805    2.574813    0.081558
     31          6           0        2.975545    4.151039    0.295799
     32          6           0        4.404935    1.419180    0.535877
     33          6           0        5.497493    2.318467   -0.083888
     34          6           0        6.880410    2.020923    0.467145
     35          8           0        7.834465    2.127103   -0.331112
     36          8           0        6.959555    1.746295    1.684795
     37          6           0       -1.523782    3.106942   -0.161928
     38          6           0       -2.621504    4.018632   -0.378982
     39          6           0       -3.773804    3.263782   -0.449087
     40          6           0       -3.391737    1.889955   -0.282770
     41          6           0       -2.441251    5.486181   -0.635844
     42          6           0       -5.201396    3.684581   -0.685696
     43          6           0       -5.528694    5.166449   -0.680472
     44          6           0       -3.949460   -0.501653   -0.280428
     45          6           0       -4.895900   -1.583832   -0.299036
     46          6           0       -4.190791   -2.767708   -0.272216
     47          6           0       -2.792824   -2.409419   -0.200375
     48          6           0       -6.370809   -1.371547   -0.155660
     49          6           0       -4.742565   -4.179894   -0.288919
     50          6           0       -6.129119   -4.356305   -0.903264
     51          6           0       -0.418234   -2.914098   -0.105400
     52          6           0        0.734324   -3.786411   -0.095803
     53          6           0        1.840490   -3.010932    0.033151
     54          6           0        1.399861   -1.662631    0.058408
     55          6           0        0.837412   -5.259024   -0.177488
     56          6           0        3.250818   -3.445904    0.325546
     57          6           0        4.110100   -3.488562   -0.922239
     58          6           0        5.417540   -2.759492   -0.721118
     59          8           0        5.628473   -1.801759   -1.493029
     60          8           0        6.130999   -3.135153    0.231962
     61          7           0        0.727846    1.220159    0.077713
     62          7           0       -2.051753    1.844920   -0.110924
     63          7           0       -2.718290   -1.033871   -0.192189
     64          7           0        0.063509   -1.632881   -0.047847
     65         26           0       -1.018939    0.150369   -0.005700
     66          1           0        0.075072    4.543025   -0.111256
     67          1           0       -5.340214    1.118064   -0.432865
     68          1           0       -1.951486   -4.385104   -0.152369
     69          1           0        3.323438   -0.899125    0.279691
     70          1           0        3.480991    4.198865   -0.668603
     71          1           0        2.342439    5.007450    0.508034
     72          1           0        3.712627    3.982789    1.080008
     73          1           0        4.471443    0.694863   -0.223704
     74          1           0        4.652499    0.830191    1.439153
     75          1           0        5.344420    3.378278    0.027153
     76          1           0        5.514732    2.115821   -1.160325
     77          1           0       -1.598312    5.554278   -1.312171
     78          1           0       -3.292357    5.956507   -1.118765
     79          1           0       -2.200802    6.006918    0.286644
     80          1           0       -6.769641   -0.912327   -1.056347
     81          1           0       -6.913134   -2.281234    0.071009
     82          1           0       -6.456310   -0.683448    0.682002
     83          1           0        0.823853   -5.533137   -1.228122
     84          1           0        1.818200   -5.449986    0.269763
     85          1           0        0.049440   -5.749940    0.375896
     86          1           0        3.423164   -4.264495    0.988734
     87          1           0        3.637755   -2.749194    1.018136
     88          1           0        3.582229   -2.929352   -1.681898
     89          1           0        4.276615   -4.517951   -1.241859
     90          1           0        6.359481   -4.063019    0.323935
     91          1           0        8.001145    1.434598   -0.974738
     92          1           0       -5.210578    5.787468   -1.491667
     93          1           0       -6.982858   -3.915208   -0.432665
     94          1           0        1.282956    1.919922   -3.722231
     95          1           0       -2.542460   -1.987817    5.213421
     96          1           0       -6.247104   -4.921034   -1.804408
     97          1           0       -4.191055   -5.006609    0.107667
     98          1           0       -6.077576    5.590242    0.134407
     99          1           0       -5.966410    2.955537   -0.853465
 ---------------------------------------------------------------------

 SCF Done:  E(RPBE1PBE) =  -3879.25985840     A.U. after   17 cycles

 The electronic state is 1-A.
 Alpha  occ. eigenvalues -- -256.30840 -89.01141 -30.07645 -25.90440 -25.90179
 Alpha  occ. eigenvalues --  -25.90030 -19.26425 -19.25117 -19.18919 -19.18537
 Alpha  occ. eigenvalues --  -14.43693 -14.39405 -14.37189 -14.36893 -14.36474
 Alpha  occ. eigenvalues --  -14.36198 -10.35653 -10.35485 -10.27450 -10.25941
 Alpha  occ. eigenvalues --  -10.25646 -10.25246 -10.24903 -10.24720 -10.24452
 Alpha  occ. eigenvalues --  -10.24344 -10.24237 -10.24070 -10.23855 -10.23433
 Alpha  occ. eigenvalues --  -10.23325 -10.23059 -10.22753 -10.22680 -10.22568
 Alpha  occ. eigenvalues --  -10.22555 -10.22422 -10.22287 -10.22192 -10.22191
 Alpha  occ. eigenvalues --  -10.22053 -10.21872 -10.21713 -10.21701 -10.21650
 Alpha  occ. eigenvalues --  -10.21642 -10.21446 -10.21204 -10.21100 -10.21099
 Alpha  occ. eigenvalues --  -10.20554 -10.20509 -10.20464 -10.20422 -10.20324
 Alpha  occ. eigenvalues --  -10.20220 -10.19540  -7.98984  -5.92667  -5.92347
 Alpha  occ. eigenvalues --   -5.91803  -3.42207  -2.18212  -2.17584  -2.17367
 Alpha  occ. eigenvalues --   -1.17083  -1.16196  -1.04786  -1.04004  -1.03230
 Alpha  occ. eigenvalues --   -0.98499  -0.97595  -0.97470  -0.96602  -0.89896
 Alpha  occ. eigenvalues --   -0.84228  -0.83454  -0.83083  -0.82336  -0.81551
 Alpha  occ. eigenvalues --   -0.81177  -0.81068  -0.80803  -0.79699  -0.78962
 Alpha  occ. eigenvalues --   -0.78385  -0.75958  -0.75774  -0.75647  -0.74335
 Alpha  occ. eigenvalues --   -0.73319  -0.72027  -0.71150  -0.71023  -0.70280
 Alpha  occ. eigenvalues --   -0.69207  -0.69191  -0.68671  -0.66718  -0.66238
 Alpha  occ. eigenvalues --   -0.65734  -0.65336  -0.64547  -0.63499  -0.61524
 Alpha  occ. eigenvalues --   -0.61178  -0.60970  -0.59371  -0.59010  -0.58520
 Alpha  occ. eigenvalues --   -0.55596  -0.55258  -0.54806  -0.54453  -0.53730
 Alpha  occ. eigenvalues --   -0.53296  -0.52594  -0.52250  -0.51762  -0.51363
 Alpha  occ. eigenvalues --   -0.50757  -0.50135  -0.49243  -0.48795  -0.48288
 Alpha  occ. eigenvalues --   -0.48027  -0.47936  -0.47646  -0.47037  -0.46447
 Alpha  occ. eigenvalues --   -0.46062  -0.45716  -0.45377  -0.44929  -0.44645
 Alpha  occ. eigenvalues --   -0.44538  -0.44384  -0.44218  -0.43776  -0.43623
 Alpha  occ. eigenvalues --   -0.43302  -0.43171  -0.42948  -0.42905  -0.42529
 Alpha  occ. eigenvalues --   -0.42410  -0.42113  -0.41966  -0.41673  -0.41530
 Alpha  occ. eigenvalues --   -0.41209  -0.41143  -0.40934  -0.40658  -0.40553
 Alpha  occ. eigenvalues --   -0.40336  -0.40199  -0.40050  -0.39645  -0.39398
 Alpha  occ. eigenvalues --   -0.39283  -0.38920  -0.38046  -0.37871  -0.37710
 Alpha  occ. eigenvalues --   -0.37545  -0.37443  -0.37160  -0.37072  -0.36343
 Alpha  occ. eigenvalues --   -0.35921  -0.35765  -0.35653  -0.35145  -0.35000
 Alpha  occ. eigenvalues --   -0.34814  -0.34444  -0.33844  -0.33596  -0.33130
 Alpha  occ. eigenvalues --   -0.32846  -0.32476  -0.31628  -0.31368  -0.30170
 Alpha  occ. eigenvalues --   -0.29489  -0.29264  -0.28927  -0.28489  -0.28251
 Alpha  occ. eigenvalues --   -0.28040  -0.26706  -0.26438  -0.24833  -0.23920
 Alpha  occ. eigenvalues --   -0.23332  -0.21931  -0.20327  -0.20064  -0.19596
 Alpha  occ. eigenvalues --   -0.19048  -0.18173  -0.17689  -0.16760
 Alpha virt. eigenvalues --   -0.09021  -0.08568  -0.06014  -0.05544  -0.00621
 Alpha virt. eigenvalues --   -0.00450  -0.00017   0.02312   0.02740   0.02767
 Alpha virt. eigenvalues --    0.03863   0.04153   0.04801   0.05044   0.05233

 Mulliken charges:
               1
     1  C   -0.353486
     2  C   -0.167466
     3  S   -0.020454
     4  C   -0.410638
     5  H    0.131627
     6  H    0.121633
     7  H    0.145577
     8  H    0.132640
     9  H    0.167171
    10  H    0.147517
    11  H    0.174100
    12  C   -0.412851
    13  C    0.147437
    14  N   -0.206551
    15  C   -0.250827
    16  C   -0.007309
    17  N    0.073627
    18  H    0.151274
    19  H    0.150406
    20  H    0.284305
    21  H    0.169469
    22  H    0.190671
    23  C   -0.460153
    24  C   -0.574923
    25  C   -0.555463
    26  C   -0.576906
    27  C    0.155518
    28  C    0.002523
    29  C    0.025983
    30  C    0.212273
    31  C   -0.503507
    32  C   -0.264123
    33  C   -0.286765
    34  C    0.324566
    35  O   -0.366275
    36  O   -0.391417
    37  C    0.224064
    38  C   -0.073681
    39  C   -0.074693
    40  C    0.257103
    41  C   -0.389640
    42  C   -0.133379
    43  C   -0.471255
    44  C    0.185103
    45  C   -0.028965
    46  C   -0.029357
    47  C    0.226613
    48  C   -0.409085
    49  C   -0.205665
    50  C   -0.409454
    51  C    0.237230
    52  C   -0.018024
    53  C   -0.105133
    54  C    0.150901
    55  C   -0.448526
    56  C   -0.345320
    57  C   -0.224934
    58  C    0.321824
    59  O   -0.416135
    60  O   -0.335604
    61  N   -0.043026
    62  N    0.097981
    63  N   -0.031014
    64  N    0.003670
    65  Fe  -0.273028
    66  H    0.158003
    67  H    0.146584
    68  H    0.140594
    69  H    0.169216
    70  H    0.167067
    71  H    0.146587
    72  H    0.164478
    73  H    0.124800
    74  H    0.163838
    75  H    0.157896
    76  H    0.137808
    77  H    0.151080
    78  H    0.132545
    79  H    0.143176
    80  H    0.148259
    81  H    0.135831
    82  H    0.151527
    83  H    0.152071
    84  H    0.137008
    85  H    0.140820
    86  H    0.155398
    87  H    0.159637
    88  H    0.129007
    89  H    0.144087
    90  H    0.394015
    91  H    0.396439
    92  H    0.177977
    93  H    0.170934
    94  H    0.122176
    95  H    0.156614
    96  H    0.169063
    97  H    0.180929
    98  H    0.165676
    99  H    0.171085
 Sum of Mulliken charges =  -0.00000

 Dipole moment (field-independent basis, Debye):
    X=              3.8215    Y=             -5.6532    Z=              2.5217  Tot=              7.2748
 Quadrupole moment (field-independent basis, Debye-Ang):
   XX=           -341.5740   YY=           -293.6789   ZZ=           -293.0756
   XY=            -25.2343   XZ=            -27.7343   YZ=             -2.4047

 Normal termination of Gaussian 16 at Sat Jan  7 17:13:36 2023.
