 Gaussian 16, Revision A.03,

 ----------------------------------------------------------------------
 # PBE1PBE/def2TZVP empiricaldispersion=GD3BJ int=(grid=ultrafine) geom
 =check pop=nbo
 ----------------------------------------------------------------------

 ----------
 1ccc_III_D
 ----------
 Structure from the checkpoint file:  "1ccc_III_D.chk"
 Charge =  1 Multiplicity = 2

 SCF Done:  E(UPBE1PBE) =  -3437.90109523     A.U. after   75 cycles

 Summary of Natural Population Analysis:

                                       Natural Population
                Natural  -----------------------------------------------
    Atom  No    Charge         Core      Valence    Rydberg      Total
 -----------------------------------------------------------------------
      C    1   -0.31718      0.99969     2.31448    0.00301     3.31718
      C    2    0.07736      0.99958     1.91533    0.00773     2.92264
      N    3   -0.21561      0.99964     2.70574    0.01022     3.71561
      C    4   -0.02407      0.99950     2.01488    0.00969     3.02407
      C    5    0.11694      0.99968     1.87437    0.00901     2.88306
      N    6   -0.11468      0.99959     2.59824    0.01685     3.61468
      H    7    0.21903      0.00000     0.28017    0.00080     0.28097
      C    8   -0.09266      0.99955     2.08559    0.00751     3.09266
      C    9   -0.09151      0.99955     2.08443    0.00753     3.09151
      C   10   -0.09276      0.99955     2.08519    0.00802     3.09276
      C   11   -0.10923      0.99954     2.10216    0.00753     3.10923
      C   12    0.07147      0.99942     1.91893    0.01018     2.92853
      C   13   -0.00630      0.99940     1.99731    0.00959     3.00630
      C   14    0.00287      0.99944     1.98971    0.00798     2.99713
      C   15    0.06566      0.99948     1.92402    0.01085     2.93434
      C   16   -0.31687      0.99970     2.31360    0.00358     3.31687
      C   17   -0.20763      0.99966     2.20118    0.00679     3.20763
      C   18   -0.24359      0.99963     2.23549    0.00847     3.24359
      C   19    0.37818      0.99978     1.60182    0.02022     2.62182
      O   20   -0.33304      0.99978     3.31853    0.01473     4.33304
      O   21   -0.29124      0.99988     3.27805    0.01331     4.29124
      C   22    0.06795      0.99951     1.92156    0.01098     2.93205
      C   23    0.00945      0.99947     1.98275    0.00833     2.99055
      C   24   -0.05042      0.99946     2.04098    0.00999     3.05042
      C   25    0.08256      0.99951     1.90732    0.01061     2.91744
      C   26   -0.31827      0.99970     2.31483    0.00374     3.31827
      C   27   -0.10443      0.99964     2.09765    0.00713     3.10443
      C   28   -0.16868      0.99972     2.16339    0.00557     3.16868
      C   29    0.05191      0.99944     1.93805    0.01060     2.94809
      C   30    0.05611      0.99925     1.93343    0.01120     2.94389
      C   31   -0.09110      0.99943     2.08163    0.01004     3.09110
      C   32    0.09083      0.99953     1.89896    0.01068     2.90917
      C   33   -0.60859      0.99953     2.57930    0.02976     3.60859
      C   34   -0.06211      0.99964     2.05353    0.00894     3.06211
      C   35   -0.22396      0.99956     2.21411    0.01030     3.22396
      C   36    0.06883      0.99947     1.92072    0.01098     2.93117
      C   37   -0.00979      0.99943     2.00214    0.00823     3.00979
      C   38    0.00029      0.99943     1.99094    0.00934     2.99971
      C   39    0.06928      0.99948     1.92083    0.01041     2.93072
      C   40   -0.31799      0.99970     2.31442    0.00387     3.31799
      C   41   -0.21349      0.99968     2.20677    0.00704     3.21349
      C   42   -0.25100      0.99964     2.24278    0.00857     3.25100
      C   43    0.37881      0.99976     1.60166    0.01977     2.62119
      O   44   -0.26793      0.99988     3.25501    0.01305     4.26793
      O   45   -0.34304      0.99977     3.32751    0.01576     4.34304
      N   46   -0.20425      0.99961     2.68441    0.02023     3.70425
      N   47   -0.21273      0.99960     2.69110    0.02203     3.71273
      N   48   -0.21283      0.99962     2.69380    0.01941     3.71283
      N   49   -0.20875      0.99959     2.68815    0.02101     3.70875
     Fe   50    0.80777      8.96888     3.20442    0.01893    12.19223
      O   51   -0.45620      0.99992     3.44988    0.00640     4.45620
      H   52    0.12431      0.00000     0.37526    0.00043     0.37569
      H   53    0.11919      0.00000     0.38022    0.00059     0.38081
      H   54    0.12109      0.00000     0.37832    0.00058     0.37891
      H   55    0.13167      0.00000     0.36757    0.00077     0.36833
      H   56    0.13329      0.00000     0.36578    0.00093     0.36671
      H   57    0.17057      0.00000     0.32437    0.00506     0.32943
      H   58    0.10691      0.00000     0.39156    0.00154     0.39309
      H   59    0.11164      0.00000     0.38759    0.00077     0.38836
      H   60    0.11972      0.00000     0.37884    0.00144     0.38028
      H   61    0.11195      0.00000     0.38677    0.00129     0.38805
      H   62    0.11063      0.00000     0.38875    0.00063     0.38937
      H   63    0.11455      0.00000     0.38473    0.00072     0.38545
      H   64    0.11446      0.00000     0.38475    0.00079     0.38554
      H   65    0.10759      0.00000     0.39145    0.00097     0.39241
      H   66    0.11592      0.00000     0.38316    0.00092     0.38408
      H   67    0.11127      0.00000     0.38776    0.00097     0.38873
      H   68    0.12159      0.00000     0.37755    0.00085     0.37841
      H   69    0.11860      0.00000     0.38054    0.00086     0.38140
      H   70    0.11539      0.00000     0.38374    0.00087     0.38461
      H   71    0.10936      0.00000     0.39004    0.00060     0.39064
      H   72    0.10267      0.00000     0.39635    0.00098     0.39733
      H   73    0.09639      0.00000     0.40277    0.00084     0.40361
      H   74    0.10551      0.00000     0.39389    0.00060     0.39449
      H   75    0.20457      0.00000     0.29469    0.00075     0.29543
      H   76    0.21518      0.00000     0.28236    0.00246     0.28482
      H   77    0.21190      0.00000     0.28696    0.00114     0.28810
      H   78    0.10220      0.00000     0.39696    0.00083     0.39780
      H   79    0.10995      0.00000     0.38926    0.00080     0.39005
      H   80    0.07844      0.00000     0.42025    0.00131     0.42156
      H   81    0.11397      0.00000     0.38523    0.00081     0.38603
      H   82    0.11465      0.00000     0.38461    0.00074     0.38535
      H   83    0.11232      0.00000     0.38711    0.00057     0.38768
      H   84    0.11413      0.00000     0.38493    0.00094     0.38587
      H   85    0.11069      0.00000     0.38836    0.00094     0.38931
      H   86    0.11943      0.00000     0.37970    0.00087     0.38057
      H   87    0.11391      0.00000     0.38523    0.00085     0.38609
      H   88    0.22886      0.00000     0.26959    0.00155     0.27114
      H   89    0.26130      0.00000     0.23742    0.00129     0.23870
      H   90    0.26085      0.00000     0.23796    0.00118     0.23915
 =======================================================================
   * Total *    1.00000     57.94889   128.45362    0.59748   187.00000

 Normal termination of Gaussian 16 at Wed Sep 21 19:41:01 2022.
 Gaussian 16:  ES64L-G16RevA.03 25-Dec-2016

 ----------------------------------------------------------------------
 # PBE1PBE/def2TZVP empiricaldispersion=GD3BJ int=(grid=ultrafine) geom
 =check guess=read scrf=(smd,solvent=Chloroform)
 ----------------------------------------------------------------------

 ---------------
 1ccc_III_D_solv
 ---------------
 Structure from the checkpoint file:  "1ccc_III_D.chk"
 Charge =  1 Multiplicity = 2

                         Standard orientation:
 ---------------------------------------------------------------------
 Center     Atomic      Atomic             Coordinates (Angstroms)
 Number     Number       Type             X           Y           Z
 ---------------------------------------------------------------------
      1          6           0       -1.547530   -1.837054    4.949256
      2          6           0       -1.462943   -0.893093    3.739090
      3          7           0       -1.679353    0.414183    3.682111
      4          6           0       -1.149798   -1.245063    2.453674
      5          6           0       -1.482546    0.849800    2.461598
      6          7           0       -1.160336   -0.166263    1.706734
      7          1           0       -2.105947    0.950743    4.369426
      8          6           0        2.365700    0.117175    0.214107
      9          6           0       -0.987526    3.552141   -0.268529
     10          6           0       -4.245136    0.086681   -0.645663
     11          6           0       -0.857484   -3.268428   -0.704938
     12          6           0        1.751825    1.376080    0.127651
     13          6           0        2.452341    2.545737    0.134488
     14          6           0        1.487584    3.563920    0.024458
     15          6           0        0.262684    2.927896   -0.096125
     16          6           0        1.699946    5.083216   -0.029930
     17          6           0        3.975586    2.588636    0.214874
     18          6           0        4.700572    2.840813   -1.080640
     19          6           0        6.225813    2.876431   -0.927693
     20          8           0        6.780855    3.820675   -0.382614
     21          8           0        6.936509    1.984812   -1.364673
     22          6           0       -2.245782    2.911520   -0.316536
     23          6           0       -3.493064    3.558074   -0.319238
     24          6           0       -4.433426    2.526747   -0.359110
     25          6           0       -3.692890    1.347268   -0.429632
     26          6           0       -3.687338    5.057385   -0.173680
     27          6           0       -5.836771    2.507417   -0.342000
     28          6           0       -6.753546    3.596043   -0.246116
     29          6           0       -3.639398   -1.165648   -0.772504
     30          6           0       -4.316472   -2.331932   -1.128158
     31          6           0       -3.291824   -3.280040   -1.267304
     32          6           0       -2.104107   -2.657063   -0.852700
     33          6           0       -5.837794   -2.461509   -1.362844
     34          6           0       -3.353638   -4.625829   -1.636344
     35          6           0       -4.505618   -5.516625   -1.574151
     36          6           0        0.356856   -2.670600   -0.374476
     37          6           0        1.503889   -3.349832   -0.002299
     38          6           0        2.440799   -2.364601    0.278161
     39          6           0        1.795289   -1.149020    0.055414
     40          6           0        1.732368   -4.841441    0.083919
     41          6           0        3.903353   -2.581971    0.689622
     42          6           0        4.853533   -2.665186   -0.511402
     43          6           0        6.328586   -2.717643   -0.153539
     44          8           0        7.162869   -2.216921   -0.881969
     45          8           0        6.657365   -3.269643    0.882567
     46          7           0        0.430962    1.603852   -0.012781
     47          7           0       -2.398077    1.586678   -0.291281
     48          7           0       -2.320157   -1.375634   -0.575019
     49          7           0        0.536421   -1.348815   -0.316954
     50         26           0       -0.954770    0.108135   -0.267683
     51          8           0       -0.717058    0.424262   -2.084194
     52          1           0       -1.356462   -2.841069    4.632480
     53          1           0       -2.525535   -1.778773    5.379383
     54          1           0       -0.819474   -1.548419    5.678313
     55          1           0       -0.932359   -2.236198    2.114157
     56          1           0       -1.570908    1.865962    2.138325
     57          1           0       -0.956802   -0.128542    0.728393
     58          1           0        3.413405    0.127998    0.431125
     59          1           0       -0.984329    4.616968   -0.373570
     60          1           0       -5.311889    0.075917   -0.728263
     61          1           0       -0.831584   -4.326042   -0.865192
     62          1           0        0.872706    5.541280   -0.530680
     63          1           0        1.772419    5.469079    0.965438
     64          1           0        2.602743    5.298323   -0.562459
     65          1           0        4.270881    1.605841    0.517883
     66          1           0        4.202759    3.430541    0.834946
     67          1           0        4.413472    3.823597   -1.391460
     68          1           0        4.487556    1.998563   -1.705251
     69          1           0       -4.306292    5.415759   -0.969521
     70          1           0       -4.156395    5.266792    0.764955
     71          1           0       -2.736189    5.545849   -0.213928
     72          1           0       -6.282743    1.537217   -0.410717
     73          1           0       -6.387568    4.598906   -0.173827
     74          1           0       -7.807208    3.409769   -0.246482
     75          1           0       -6.515196   -3.273287   -1.198397
     76          1           0       -5.482399   -3.145513   -2.104957
     77          1           0       -5.816828   -2.499529   -0.293725
     78          1           0       -2.446765   -5.054033   -2.009334
     79          1           0       -4.689316   -5.930344   -2.543683
     80          1           0       -5.365052   -4.966335   -1.252507
     81          1           0        2.669530   -5.085604   -0.371066
     82          1           0        1.745573   -5.141471    1.110909
     83          1           0        0.943745   -5.353189   -0.427049
     84          1           0        3.938450   -3.541531    1.161759
     85          1           0        4.190727   -1.706918    1.234231
     86          1           0        4.719628   -1.749769   -1.048972
     87          1           0        4.638323   -3.600177   -0.985087
     88          1           0       -1.207105   -0.228570   -2.589433
     89          1           0        7.573708    4.199646   -0.769092
     90          1           0        7.059662   -4.140864    0.855550
 ---------------------------------------------------------------------

 SCF Done:  E(UPBE1PBE) =  -3438.02707759     A.U. after   52 cycles

 Alpha virt. eigenvalues --    0.70009   0.70349   0.70599   0.70742   0.71095
 Alpha virt. eigenvalues --    0.71399   0.71551   0.71840   0.72143   0.72519
 Alpha virt. eigenvalues --    0.73064   0.73091   0.73480   0.73577   0.74051

  Beta  occ. eigenvalues -- -256.44528 -30.20319 -26.03439 -26.03431 -26.02283
  Beta  occ. eigenvalues --  -19.25986 -19.25519 -19.19411 -19.18830 -19.18096
  Beta  occ. eigenvalues --  -14.53480 -14.51036 -14.42975 -14.41955 -14.41549
  Beta  occ. eigenvalues --  -14.41548 -10.35861 -10.35436 -10.35380 -10.32277
  Beta  occ. eigenvalues --  -10.31050 -10.30488 -10.28998 -10.28872 -10.28425
  Beta  occ. eigenvalues --  -10.28052 -10.28031 -10.27980 -10.27911 -10.27691
  Beta  occ. eigenvalues --  -10.26791 -10.26139 -10.25966 -10.25748 -10.25693
  Beta  occ. eigenvalues --  -10.25532 -10.25455 -10.25426 -10.25424 -10.25315
  Beta  occ. eigenvalues --  -10.25094 -10.24972 -10.24926 -10.24791 -10.24243
  Beta  occ. eigenvalues --  -10.24237 -10.24223 -10.23868 -10.23535 -10.23246
  Beta  occ. eigenvalues --  -10.23009 -10.22975 -10.22858 -10.21816  -3.54726
  Beta  occ. eigenvalues --   -2.32595  -2.29019  -2.28792  -1.18946  -1.18880
  Beta  occ. eigenvalues --   -1.17970  -1.05267  -1.04924  -1.04407  -1.04146
  Beta  occ. eigenvalues --   -1.03904  -1.03821  -1.02914  -0.98304  -0.88880
  Beta  occ. eigenvalues --   -0.87938  -0.87431  -0.86427  -0.86146  -0.85988
  Beta  occ. eigenvalues --   -0.85197  -0.84948  -0.82376  -0.81391  -0.81151
  Beta  occ. eigenvalues --   -0.80562  -0.79308  -0.78999  -0.77862  -0.77122
  Beta  occ. eigenvalues --   -0.76877  -0.74964  -0.74602  -0.73322  -0.71374
  Beta  occ. eigenvalues --   -0.71174  -0.70958  -0.70213  -0.69901  -0.67488
  Beta  occ. eigenvalues --   -0.66769  -0.66122  -0.65521  -0.65066  -0.62912
  Beta  occ. eigenvalues --   -0.62704  -0.62549  -0.60047  -0.59270  -0.58383
  Beta  occ. eigenvalues --   -0.57652  -0.56932  -0.56566  -0.56400  -0.55808
  Beta  occ. eigenvalues --   -0.54326  -0.53815  -0.53504  -0.52964  -0.52602
  Beta  occ. eigenvalues --   -0.52497  -0.51997  -0.51937  -0.51774  -0.51216
  Beta  occ. eigenvalues --   -0.50936  -0.50838  -0.49318  -0.48875  -0.48818
  Beta  occ. eigenvalues --   -0.48588  -0.48352  -0.47826  -0.47623  -0.47234
  Beta  occ. eigenvalues --   -0.47094  -0.47011  -0.46685  -0.46418  -0.46319
  Beta  occ. eigenvalues --   -0.45963  -0.45506  -0.44960  -0.44542  -0.44370
  Beta  occ. eigenvalues --   -0.44233  -0.44026  -0.43885  -0.43492  -0.43209
  Beta  occ. eigenvalues --   -0.43043  -0.42735  -0.42156  -0.42094  -0.41506
  Beta  occ. eigenvalues --   -0.41220  -0.40941  -0.40836  -0.40484  -0.40247
  Beta  occ. eigenvalues --   -0.39783  -0.39187  -0.39031  -0.38829  -0.38574
  Beta  occ. eigenvalues --   -0.38413  -0.37493  -0.37046  -0.36908  -0.36742
  Beta  occ. eigenvalues --   -0.36370  -0.36138  -0.35681  -0.35269  -0.34126
  Beta  occ. eigenvalues --   -0.33841  -0.33468  -0.33190  -0.32471  -0.31626
  Beta  occ. eigenvalues --   -0.31064  -0.30390  -0.29342  -0.28670  -0.28082
  Beta  occ. eigenvalues --   -0.27706  -0.26826  -0.26329  -0.24949  -0.23602
  Beta  occ. eigenvalues --   -0.22957  -0.22345
  Beta virt. eigenvalues --   -0.12625  -0.12227  -0.11363  -0.10093  -0.08226
  Beta virt. eigenvalues --   -0.07923  -0.05072  -0.04735  -0.02566  -0.01900
  Beta virt. eigenvalues --   -0.01206  -0.00666  -0.00428   0.01070   0.02531

 Mulliken charges and spin densities:
               1          2
     1  C   -0.376785   0.000238
     2  C    0.162398   0.002340
     3  N   -0.141078  -0.000185
     4  C   -0.203104  -0.000338
     5  C    0.065207  -0.000979
     6  N    0.241525   0.017366
     7  H    0.294392   0.000178
     8  C   -0.445011  -0.013670
     9  C   -0.497997  -0.006315
    10  C   -0.512535  -0.005040
    11  C   -0.501959  -0.012794
    12  C    0.305947   0.011806
    13  C    0.025584  -0.000085
    14  C   -0.072282   0.005397
    15  C    0.291715   0.002212
    16  C   -0.425013  -0.000622
    17  C   -0.387475  -0.000005
    18  C   -0.112716  -0.000120
    19  C    0.242492  -0.000041
    20  O   -0.337672  -0.000005
    21  O   -0.396814  -0.000024
    22  C    0.274733   0.006019
    23  C   -0.122569  -0.000845
    24  C    0.044016  -0.001444
    25  C    0.298660   0.009994
    26  C   -0.406429  -0.000231
    27  C   -0.200108  -0.000083
    28  C   -0.328460  -0.000167
    29  C    0.213786   0.007274
    30  C   -0.110127   0.002692
    31  C    0.058886  -0.001612
    32  C    0.240009   0.011034
    33  C   -0.730432   0.000480
    34  C   -0.176642   0.003834
    35  C   -0.389875  -0.005658
    36  C    0.217687   0.009887
    37  C   -0.045702   0.000618
    38  C   -0.002444   0.000770
    39  C    0.242966   0.010852
    40  C   -0.426080  -0.000405
    41  C   -0.327932  -0.000543
    42  C   -0.179028   0.000140
    43  C    0.244837  -0.000012
    44  O   -0.355537   0.000005
    45  O   -0.351583  -0.000002
    46  N    0.034728  -0.043425
    47  N   -0.000397  -0.051608
    48  N   -0.037792  -0.046121
    49  N    0.030077  -0.044818
    50  Fe  -0.361971   1.321230
    51  O   -0.502732  -0.187035
    52  H    0.173342   0.000005
    53  H    0.167025   0.000067
    54  H    0.170859   0.000091
    55  H    0.215371   0.000363
    56  H    0.246181   0.000747
    57  H   -0.008098  -0.007129
    58  H    0.146164   0.000405
    59  H    0.147648   0.000339
    60  H    0.186989   0.000069
    61  H    0.145767   0.000506
    62  H    0.153333   0.000036
    63  H    0.161794   0.000238
    64  H    0.153351   0.000018
    65  H    0.125700  -0.000052
    66  H    0.138049   0.000093
    67  H    0.125852   0.000018
    68  H    0.140800   0.000032
    69  H    0.165669  -0.000136
    70  H    0.159366  -0.000023
    71  H    0.145904  -0.000018
    72  H    0.125468  -0.000014
    73  H    0.163831   0.000011
    74  H    0.172470  -0.000026
    75  H    0.305269  -0.000133
    76  H    0.273964   0.000054
    77  H    0.285448   0.000097
    78  H    0.159398  -0.000172
    79  H    0.170600   0.000258
    80  H    0.100261   0.000123
    81  H    0.155183  -0.000051
    82  H    0.161558   0.000058
    83  H    0.153525   0.000014
    84  H    0.130667  -0.000011
    85  H    0.135074  -0.000004
    86  H    0.134212   0.000002
    87  H    0.138924   0.000004
    88  H    0.326169   0.003990
    89  H    0.389705   0.000000
    90  H    0.393843   0.000000
 Sum of Mulliken charges =   1.00000   1.00000

 Dipole moment (field-independent basis, Debye):
    X=             -8.3892    Y=             -0.6063    Z=             16.4505  Tot=             18.4761
 Quadrupole moment (field-independent basis, Debye-Ang):
   XX=           -284.8897   YY=           -200.8796   ZZ=           -252.3819
   XY=              2.3566   XZ=             -7.7533   YZ=             -1.9305

 Normal termination of Gaussian 16 at Fri Sep 23 08:44:53 2022.
