 Gaussian 16, Revision A.03,
 Gaussian 16:  ES64L-G16RevA.03 25-Dec-2016

 ----------------------------------------------------------------------
 # PBE1PBE/def2TZVP empiricaldispersion=GD3BJ scf=maxcycle=999 geom=che
 ck pop=nbo
 ----------------------------------------------------------------------

 ----------
 2pcb_III_D
 ----------
 Structure from the checkpoint file:  "2pcb_III_D.chk"
 Charge =  1 Multiplicity = 2

                         Standard orientation:
 ---------------------------------------------------------------------
 Center     Atomic      Atomic             Coordinates (Angstroms)
 Number     Number       Type             X           Y           Z
 ---------------------------------------------------------------------
      1          6           0        2.452341   -1.508951    5.369520
      2          6           0        1.806793   -1.007875    4.122895
      3          7           0        0.704636   -0.188654    4.032805
      4          6           0        2.123836   -1.298378    2.817974
      5          6           0        0.399746    0.031241    2.762310
      6          7           0        1.227279   -0.645625    2.009838
      7          6           0       -0.607537    2.654348   -2.488435
      8          6           0        0.648785    1.901651   -2.875449
      9         16           0        0.335794    0.238432   -2.265310
     10          6           0        1.135186   -0.781395   -3.508815
     11         26           0        0.868684   -0.079514   -0.022166
     12          6           0       -2.510265   -0.003373    0.027790
     13          6           0        0.845563   -3.481463   -0.371367
     14          6           0        4.279624   -0.123661   -0.601785
     15          6           0        1.058141    3.117034    0.845639
     16          7           0       -0.564255   -1.475338   -0.113136
     17          6           0       -1.931370   -1.244738   -0.186491
     18          6           0       -2.582521   -2.502183   -0.492953
     19          6           0       -1.646165   -3.443744   -0.645009
     20          6           0       -0.363316   -2.813653   -0.393088
     21          6           0       -1.760681   -4.954837   -0.938149
     22          6           0       -4.122300   -2.701477   -0.592382
     23          6           0       -4.841296   -3.110925    0.707886
     24          6           0       -6.181050   -3.781231    0.578595
     25          8           0       -6.400877   -4.868126    1.189436
     26          8           0       -7.088105   -3.236588   -0.120397
     27          7           0        2.257050   -1.501558   -0.375980
     28          6           0        2.056710   -2.860196   -0.461798
     29          6           0        3.320212   -3.526671   -0.687836
     30          6           0        4.263316   -2.577104   -0.778906
     31          6           0        3.605482   -1.294639   -0.564184
     32          6           0        3.491941   -5.046106   -0.854598
     33          6           0        5.756720   -2.726910   -1.124539
     34          6           0        6.456868   -1.868636   -1.853725
     35          7           0        2.375066    1.243551    0.099480
     36          6           0        3.693675    1.044582   -0.261128
     37          6           0        4.399337    2.307011   -0.206500
     38          6           0        3.526198    3.233287    0.203600
     39          6           0        2.258887    2.580178    0.428294
     40          6           0        5.902712    2.493284   -0.511477
     41          6           0        3.863012    4.713772    0.402796
     42          6           0        3.018343    5.627741    0.822439
     43          7           0       -0.488553    1.298034    0.400025
     44          6           0       -0.221025    2.606682    0.694609
     45          6           0       -1.471150    3.361431    0.712824
     46          6           0       -2.451718    2.478240    0.484763
     47          6           0       -1.860868    1.183139    0.275988
     48          6           0       -1.531896    4.900438    0.968812
     49          6           0       -3.945763    2.767862    0.423066
     50          6           0       -4.602717    3.116155   -0.915825
     51          6           0       -6.042951    3.573207   -0.745409
     52          8           0       -6.870027    2.793619   -0.170248
     53          8           0       -6.355129    4.716616   -1.175589
     54          1           0        1.389270   -0.178207   -4.355282
     55          1           0        2.024244   -1.212854   -3.098548
     56          1           0        0.468314   -1.560728   -3.813484
     57          1           0       -1.174608    2.877827   -3.367860
     58          1           0       -1.195585    2.051337   -1.828529
     59          1           0       -0.339827    3.565553   -1.995548
     60          1           0        0.773643    1.896672   -3.938128
     61          1           0        1.505788    2.325096   -2.394679
     62          1           0        2.109743   -0.934126    6.204447
     63          1           0        2.195939   -2.537490    5.515346
     64          1           0        3.514736   -1.414925    5.283636
     65          1           0        0.205652    0.186673    4.813922
     66          1           0        2.927961   -1.923339    2.489785
     67          1           0       -0.392355    0.658703    2.410506
     68          1           0       -4.043185    3.899014   -1.383752
     69          1           0       -4.585150    2.251823   -1.546319
     70          1           0       -4.451032    1.907230    0.808962
     71          1           0       -4.138139    3.581391    1.090944
     72          1           0       -7.809588    2.873082   -0.350556
     73          1           0       -3.579094    0.035791   -0.003348
     74          1           0       -4.553827   -1.784293   -0.935104
     75          1           0       -4.312205   -3.455255   -1.327674
     76          1           0       -4.194724   -3.774224    1.243498
     77          1           0       -4.973137   -2.229214    1.299582
     78          1           0       -6.892290   -2.446914   -0.629977
     79          1           0       -2.408249    5.304561    0.506654
     80          1           0       -1.566432    5.085722    2.022081
     81          1           0       -0.662636    5.365731    0.553131
     82          1           0       -1.819468   -5.109630   -1.995260
     83          1           0       -0.900186   -5.459454   -0.551096
     84          1           0       -2.641774   -5.342949   -0.471304
     85          1           0        0.831260   -4.547308   -0.278264
     86          1           0        1.123951    4.055478    1.355436
     87          1           0        5.304416   -0.122191   -0.909516
     88          1           0        6.082589    3.503455   -0.814956
     89          1           0        6.474248    2.277641    0.367013
     90          1           0        6.192293    1.827739   -1.297666
     91          1           0        3.585559   -5.282520   -1.893946
     92          1           0        4.371800   -5.364680   -0.335697
     93          1           0        2.637923   -5.548083   -0.450156
     94          1           0        5.997983   -0.969841   -2.209383
     95          1           0        7.480682   -2.074915   -2.086436
     96          1           0        6.267725   -3.588288   -0.747974
     97          1           0        2.325090    6.070136    0.137905
     98          1           0        3.023444    5.929968    1.848856
     99          1           0        4.862232    5.027395    0.183478
 ---------------------------------------------------------------------

 SCF Done:  E(UPBE1PBE) =  -3879.13364358     A.U. after   83 cycles

 Alpha virt. eigenvalues --    0.91085   0.91404   0.91473   0.91888   0.92478
 Alpha virt. eigenvalues --    0.92881   0.92991   0.93134   0.93571   0.93954
 Alpha virt. eigenvalues --    0.94111   0.94418   0.94669   0.95063   0.95377

  Beta  occ. eigenvalues -- -256.51505 -89.15410 -30.27871 -26.10915 -26.10705
  Beta  occ. eigenvalues --  -26.10041 -19.34319 -19.33980 -19.25287 -19.24161
  Beta  occ. eigenvalues --  -14.54842 -14.50475 -14.49620 -14.49551 -14.49546
  Beta  occ. eigenvalues --  -14.49322 -10.43276 -10.42333 -10.37952 -10.36671
  Beta  occ. eigenvalues --  -10.36497 -10.36074 -10.36066 -10.35900 -10.35850
  Beta  occ. eigenvalues --  -10.35748 -10.35574 -10.35440 -10.34883 -10.34430
  Beta  occ. eigenvalues --  -10.34178 -10.33647 -10.33560 -10.33220 -10.33179
  Beta  occ. eigenvalues --  -10.33054 -10.32926 -10.32838 -10.32831 -10.32826
  Beta  occ. eigenvalues --  -10.32811 -10.32732 -10.32577 -10.32495 -10.32442
  Beta  occ. eigenvalues --  -10.32014 -10.31781 -10.31735 -10.31485 -10.31255
  Beta  occ. eigenvalues --  -10.30822 -10.30792 -10.30789 -10.30471 -10.30453
  Beta  occ. eigenvalues --  -10.30423 -10.29771  -8.13243  -6.06855  -6.06595
  Beta  occ. eigenvalues --   -6.06146  -3.60230  -2.35764  -2.35417  -2.34768
  Beta  occ. eigenvalues --   -1.23671  -1.23316  -1.17067  -1.09754  -1.09399
  Beta  occ. eigenvalues --   -1.08839  -1.08390  -1.08353  -1.07444  -1.01774
  Beta  occ. eigenvalues --   -0.96127  -0.95162  -0.93613  -0.93185  -0.93055
  Beta  occ. eigenvalues --   -0.92462  -0.92302  -0.91774  -0.91255  -0.89083
  Beta  occ. eigenvalues --   -0.88516  -0.88180  -0.87864  -0.87461  -0.86923
  Beta  occ. eigenvalues --   -0.84264  -0.82628  -0.82246  -0.81919  -0.81252
  Beta  occ. eigenvalues --   -0.79694  -0.78644  -0.77889  -0.77597  -0.76771
  Beta  occ. eigenvalues --   -0.76595  -0.74789  -0.74643  -0.74104  -0.72577
  Beta  occ. eigenvalues --   -0.72359  -0.71791  -0.70675  -0.69806  -0.69212
  Beta  occ. eigenvalues --   -0.67391  -0.66582  -0.66085  -0.65477  -0.63946
  Beta  occ. eigenvalues --   -0.62919  -0.62755  -0.62430  -0.61662  -0.60196
  Beta  occ. eigenvalues --   -0.59935  -0.59802  -0.59222  -0.59009  -0.58493
  Beta  occ. eigenvalues --   -0.58117  -0.57974  -0.57931  -0.57677  -0.57608
  Beta  occ. eigenvalues --   -0.57474  -0.56287  -0.55985  -0.55833  -0.55670
  Beta  occ. eigenvalues --   -0.55254  -0.55184  -0.54676  -0.54568  -0.54414
  Beta  occ. eigenvalues --   -0.54145  -0.53976  -0.53769  -0.53443  -0.53381
  Beta  occ. eigenvalues --   -0.52948  -0.52725  -0.52579  -0.52367  -0.52041
  Beta  occ. eigenvalues --   -0.51909  -0.51557  -0.51365  -0.51208  -0.51082
  Beta  occ. eigenvalues --   -0.50826  -0.50728  -0.50215  -0.50192  -0.49796
  Beta  occ. eigenvalues --   -0.49656  -0.49551  -0.48883  -0.48800  -0.48569
  Beta  occ. eigenvalues --   -0.48359  -0.47856  -0.47663  -0.47608  -0.47345
  Beta  occ. eigenvalues --   -0.47005  -0.46692  -0.46148  -0.45970  -0.45902
  Beta  occ. eigenvalues --   -0.45615  -0.44872  -0.44700  -0.44570  -0.44172
  Beta  occ. eigenvalues --   -0.44007  -0.43622  -0.43469  -0.42568  -0.41421
  Beta  occ. eigenvalues --   -0.40374  -0.40055  -0.39974  -0.39707  -0.38848
  Beta  occ. eigenvalues --   -0.38677  -0.38057  -0.36851  -0.36218  -0.35636
  Beta  occ. eigenvalues --   -0.34976  -0.34419  -0.34305  -0.33850  -0.33429
  Beta  occ. eigenvalues --   -0.30665  -0.30034  -0.27200
  Beta virt. eigenvalues --   -0.20060  -0.19301  -0.17027  -0.15989  -0.15458
  Beta virt. eigenvalues --   -0.11675  -0.11571  -0.08633  -0.08056  -0.07718
  Beta virt. eigenvalues --   -0.07587  -0.07222  -0.06497  -0.06160  -0.05658

 Mulliken charges and spin densities:
               1          2
     1  C   -0.352939  -0.000553
     2  C    0.118830   0.000165
     3  N   -0.200705   0.000195
     4  C   -0.178605  -0.002490
     5  C    0.063169   0.005073
     6  N   -0.064081  -0.032032
     7  C   -0.344425  -0.000169
     8  C   -0.165073   0.002507
     9  S    0.084467  -0.051014
    10  C   -0.388171   0.006374
    11  Fe  -0.380508   1.175344
    12  C   -0.458252  -0.010168
    13  C   -0.411404  -0.008334
    14  C   -0.444204  -0.004612
    15  C   -0.478489  -0.002146
    16  N    0.061052  -0.046954
    17  C    0.291694   0.004048
    18  C   -0.003953   0.017280
    19  C   -0.028563  -0.004066
    20  C    0.195929   0.016522
    21  C   -0.378241  -0.000410
    22  C   -0.412835  -0.001584
    23  C   -0.226629   0.000780
    24  C    0.299077   0.000040
    25  O   -0.359328   0.000160
    26  O   -0.278624  -0.000002
    27  N    0.064382  -0.042188
    28  C    0.167017   0.012256
    29  C   -0.033323  -0.006734
    30  C    0.056321   0.011328
    31  C    0.215863   0.002898
    32  C   -0.372206  -0.000216
    33  C   -0.231371  -0.003006
    34  C   -0.248669   0.004194
    35  N    0.057542  -0.044228
    36  C    0.302658   0.002073
    37  C   -0.099866   0.016796
    38  C    0.042533  -0.002862
    39  C    0.167194   0.008507
    40  C   -0.360214  -0.001094
    41  C   -0.123434   0.002518
    42  C   -0.382486  -0.002414
    43  N   -0.075004  -0.033141
    44  C    0.224018   0.005233
    45  C   -0.065358  -0.003910
    46  C    0.215396   0.009580
    47  C    0.190655   0.003853
    48  C   -0.401138  -0.000340
    49  C   -0.521749  -0.000648
    50  C   -0.112970   0.000454
    51  C    0.261256   0.000021
    52  O   -0.342638  -0.000003
    53  O   -0.355706   0.000074
    54  H    0.162649  -0.000191
    55  H    0.166355  -0.001758
    56  H    0.167924  -0.000951
    57  H    0.142624  -0.000073
    58  H    0.136981   0.000473
    59  H    0.114340  -0.000238
    60  H    0.157498  -0.001526
    61  H    0.144735  -0.001420
    62  H    0.135043  -0.000147
    63  H    0.160122   0.000123
    64  H    0.158492   0.000065
    65  H    0.242614  -0.000056
    66  H    0.154515   0.000077
    67  H    0.186747   0.000815
    68  H    0.136242  -0.000009
    69  H    0.115820   0.000004
    70  H    0.134354   0.000118
    71  H    0.156619   0.000099
    72  H    0.357336   0.000002
    73  H    0.119002   0.000184
    74  H    0.110180   0.000214
    75  H    0.162579   0.000177
    76  H    0.140724  -0.000037
    77  H    0.136033   0.000001
    78  H    0.334145   0.000006
    79  H    0.160294  -0.000151
    80  H    0.154065  -0.000064
    81  H    0.146687   0.000035
    82  H    0.156388  -0.000090
    83  H    0.133722  -0.000062
    84  H    0.159526  -0.000064
    85  H    0.117111   0.000495
    86  H    0.186300   0.000147
    87  H    0.097019   0.000022
    88  H    0.141070   0.000071
    89  H    0.162987   0.000848
    90  H    0.134797   0.000203
    91  H    0.157769  -0.000149
    92  H    0.145869  -0.000184
    93  H    0.131023  -0.000041
    94  H    0.120764  -0.000180
    95  H    0.148229  -0.000195
    96  H    0.136183   0.000193
    97  H    0.165859   0.000346
    98  H    0.160921   0.000301
    99  H    0.151851  -0.000385
 Sum of Mulliken charges =   1.00000   1.00000

 Dipole moment (field-independent basis, Debye):
    X=              7.7401    Y=              2.0084    Z=              0.5824  Tot=              8.0176
 Quadrupole moment (field-independent basis, Debye-Ang):
   XX=           -268.1989   YY=           -307.1874   ZZ=           -265.6298
   XY=            -20.4648   XZ=              8.4831   YZ=             16.9132

 Summary of Natural Population Analysis:

                                       Natural Population
                Natural  -----------------------------------------------
    Atom  No    Charge         Core      Valence    Rydberg      Total
 -----------------------------------------------------------------------
      C    1   -0.32200      0.99969     2.31911    0.00320     3.32200
      C    2    0.06161      0.99957     1.92990    0.00892     2.93839
      N    3   -0.23292      0.99968     2.72334    0.00989     3.73292
      C    4   -0.03910      0.99948     2.03024    0.00939     3.03910
      C    5    0.09680      0.99965     1.89240    0.01115     2.90320
      N    6   -0.18682      0.99968     2.65991    0.02723     3.68682
      C    7   -0.31273      0.99972     2.30645    0.00656     3.31273
      C    8   -0.26513      0.99967     2.25584    0.00962     3.26513
      S    9    0.29545      4.99929     2.68538    0.01988     7.70455
      C   10   -0.37240      0.99964     2.36382    0.00893     3.37240
     Fe   11    0.64769      8.99536     3.32930    0.02766    12.35231
      C   12   -0.11757      0.99947     2.10939    0.00870     3.11757
      C   13   -0.12070      0.99945     2.11276    0.00849     3.12070
      C   14   -0.12590      0.99940     2.11747    0.00903     3.12590
      C   15   -0.12405      0.99948     2.11524    0.00932     3.12405
      N   16   -0.20174      0.99967     2.67798    0.02409     3.70174
      C   17    0.07678      0.99952     1.91352    0.01018     2.92322
      C   18   -0.00184      0.99935     1.99279    0.00970     3.00184
      C   19   -0.00545      0.99937     1.99792    0.00815     3.00545
      C   20    0.09297      0.99952     1.89671    0.01080     2.90703
      C   21   -0.31679      0.99969     2.31347    0.00362     3.31679
      C   22   -0.21257      0.99966     2.20606    0.00685     3.21257
      C   23   -0.25852      0.99961     2.25045    0.00846     3.25852
      C   24    0.37541      0.99973     1.60813    0.01673     2.62459
      O   25   -0.28311      0.99990     3.27160    0.01161     4.28311
      O   26   -0.31159      0.99982     3.29654    0.01523     4.31159
      N   27   -0.21190      0.99967     2.68583    0.02641     3.71190
      C   28    0.08659      0.99949     1.90329    0.01063     2.91341
      C   29   -0.00137      0.99939     1.99405    0.00793     3.00137
      C   30   -0.02884      0.99936     2.01945    0.01003     3.02884
      C   31    0.08592      0.99947     1.90389    0.01071     2.91408
      C   32   -0.31646      0.99970     2.31317    0.00359     3.31646
      C   33   -0.10069      0.99956     2.09220    0.00894     3.10069
      C   34   -0.18296      0.99958     2.17536    0.00801     3.18296
      N   35   -0.20561      0.99968     2.68261    0.02332     3.70561
      C   36    0.07845      0.99947     1.91147    0.01061     2.92155
      C   37    0.01537      0.99938     1.97703    0.00822     2.98463
      C   38   -0.04775      0.99931     2.03767    0.01077     3.04775
      C   39    0.09480      0.99951     1.89471    0.01098     2.90520
      C   40   -0.31758      0.99970     2.31393    0.00395     3.31758
      C   41   -0.07722      0.99954     2.06662    0.01106     3.07722
      C   42   -0.20311      0.99958     2.19147    0.01206     3.20311
      N   43   -0.22765      0.99968     2.70351    0.02446     3.72765
      C   44    0.08108      0.99952     1.90846    0.01094     2.91892
      C   45   -0.00325      0.99936     1.99536    0.00853     3.00325
      C   46   -0.01250      0.99936     2.00372    0.00942     3.01250
      C   47    0.06515      0.99951     1.92472    0.01062     2.93485
      C   48   -0.32054      0.99969     2.31724    0.00361     3.32054
      C   49   -0.21133      0.99965     2.20527    0.00641     3.21133
      C   50   -0.24324      0.99962     2.23539    0.00823     3.24324
      C   51    0.37871      0.99977     1.60384    0.01767     2.62129
      O   52   -0.33122      0.99982     3.31866    0.01274     4.33122
      O   53   -0.29283      0.99990     3.28104    0.01189     4.29283
      H   54    0.11999      0.00000     0.37934    0.00067     0.38001
      H   55    0.11881      0.00000     0.38039    0.00080     0.38119
      H   56    0.12073      0.00000     0.37883    0.00044     0.37927
      H   57    0.11211      0.00000     0.38739    0.00050     0.38789
      H   58    0.11365      0.00000     0.38547    0.00087     0.38635
      H   59    0.11078      0.00000     0.38851    0.00071     0.38922
      H   60    0.11669      0.00000     0.38259    0.00072     0.38331
      H   61    0.11511      0.00000     0.38390    0.00099     0.38489
      H   62    0.11316      0.00000     0.38626    0.00058     0.38684
      H   63    0.11955      0.00000     0.37985    0.00060     0.38045
      H   64    0.12109      0.00000     0.37839    0.00052     0.37891
      H   65    0.21138      0.00000     0.28785    0.00077     0.28862
      H   66    0.11538      0.00000     0.38393    0.00069     0.38462
      H   67    0.12040      0.00000     0.37860    0.00100     0.37960
      H   68    0.11998      0.00000     0.37932    0.00070     0.38002
      H   69    0.11132      0.00000     0.38796    0.00072     0.38868
      H   70    0.10896      0.00000     0.39000    0.00104     0.39104
      H   71    0.11286      0.00000     0.38609    0.00105     0.38714
      H   72    0.25986      0.00000     0.23885    0.00129     0.24014
      H   73    0.11168      0.00000     0.38725    0.00107     0.38832
      H   74    0.10028      0.00000     0.39848    0.00124     0.39972
      H   75    0.11477      0.00000     0.38449    0.00074     0.38523
      H   76    0.12288      0.00000     0.37638    0.00074     0.37712
      H   77    0.11254      0.00000     0.38676    0.00070     0.38746
      H   78    0.24671      0.00000     0.25242    0.00087     0.25329
      H   79    0.11601      0.00000     0.38334    0.00065     0.38399
      H   80    0.11517      0.00000     0.38414    0.00069     0.38483
      H   81    0.11333      0.00000     0.38561    0.00106     0.38667
      H   82    0.11578      0.00000     0.38353    0.00069     0.38422
      H   83    0.10981      0.00000     0.38963    0.00057     0.39019
      H   84    0.11688      0.00000     0.38242    0.00070     0.38312
      H   85    0.11472      0.00000     0.38380    0.00148     0.38528
      H   86    0.12023      0.00000     0.37854    0.00123     0.37977
      H   87    0.12053      0.00000     0.37810    0.00137     0.37947
      H   88    0.11355      0.00000     0.38574    0.00071     0.38645
      H   89    0.11785      0.00000     0.38138    0.00076     0.38215
      H   90    0.11127      0.00000     0.38812    0.00061     0.38873
      H   91    0.11683      0.00000     0.38246    0.00071     0.38317
      H   92    0.11533      0.00000     0.38397    0.00069     0.38467
      H   93    0.10863      0.00000     0.39081    0.00056     0.39137
      H   94    0.09289      0.00000     0.40623    0.00088     0.40711
      H   95    0.10875      0.00000     0.39064    0.00062     0.39125
      H   96    0.10868      0.00000     0.39044    0.00088     0.39132
      H   97    0.10710      0.00000     0.39142    0.00148     0.39290
      H   98    0.10931      0.00000     0.38950    0.00119     0.39069
      H   99    0.11086      0.00000     0.38773    0.00141     0.38914
 =======================================================================
   * Total *    1.00000     64.97334   137.38257    0.64410   203.00000

 Normal termination of Gaussian 16 at Wed Apr  5 13:03:57 2023.
