 Gaussian 16, Revision A.03,
 Gaussian 16:  ES64L-G16RevA.03 25-Dec-2016

 ----------------------------------------------------------------------
 # PBE1PBE/def2TZVP empiricaldispersion=GD3BJ scf=maxcycle=999 geom=che
 ck pop=nbo
 ----------------------------------------------------------------------

 ----------
 2pcb_III_H
 ----------
 Structure from the checkpoint file:  "2pcb_III_H.chk"
 Charge =  1 Multiplicity = 6

                         Standard orientation:
 ---------------------------------------------------------------------
 Center     Atomic      Atomic             Coordinates (Angstroms)
 Number     Number       Type             X           Y           Z
 ---------------------------------------------------------------------
      1          6           0        2.452341   -1.508951    5.369520
      2          6           0        1.806793   -1.007875    4.122895
      3          7           0        0.704636   -0.188654    4.032805
      4          6           0        2.123836   -1.298378    2.817974
      5          6           0        0.399746    0.031241    2.762310
      6          7           0        1.227279   -0.645625    2.009838
      7          6           0       -0.607537    2.654348   -2.488435
      8          6           0        0.648785    1.901651   -2.875449
      9         16           0        0.335794    0.238432   -2.265310
     10          6           0        1.135186   -0.781395   -3.508815
     11         26           0        0.868684   -0.079514   -0.022166
     12          6           0       -2.510265   -0.003373    0.027790
     13          6           0        0.845563   -3.481463   -0.371367
     14          6           0        4.279624   -0.123661   -0.601785
     15          6           0        1.058141    3.117034    0.845639
     16          7           0       -0.564255   -1.475338   -0.113136
     17          6           0       -1.931370   -1.244738   -0.186491
     18          6           0       -2.582521   -2.502183   -0.492953
     19          6           0       -1.646165   -3.443744   -0.645009
     20          6           0       -0.363316   -2.813653   -0.393088
     21          6           0       -1.760681   -4.954837   -0.938149
     22          6           0       -4.122300   -2.701477   -0.592382
     23          6           0       -4.841296   -3.110925    0.707886
     24          6           0       -6.181050   -3.781231    0.578595
     25          8           0       -6.400877   -4.868126    1.189436
     26          8           0       -7.088105   -3.236588   -0.120397
     27          7           0        2.257050   -1.501558   -0.375980
     28          6           0        2.056710   -2.860196   -0.461798
     29          6           0        3.320212   -3.526671   -0.687836
     30          6           0        4.263316   -2.577104   -0.778906
     31          6           0        3.605482   -1.294639   -0.564184
     32          6           0        3.491941   -5.046106   -0.854598
     33          6           0        5.756720   -2.726910   -1.124539
     34          6           0        6.456868   -1.868636   -1.853725
     35          7           0        2.375066    1.243551    0.099480
     36          6           0        3.693675    1.044582   -0.261128
     37          6           0        4.399337    2.307011   -0.206500
     38          6           0        3.526198    3.233287    0.203600
     39          6           0        2.258887    2.580178    0.428294
     40          6           0        5.902712    2.493284   -0.511477
     41          6           0        3.863012    4.713772    0.402796
     42          6           0        3.018343    5.627741    0.822439
     43          7           0       -0.488553    1.298034    0.400025
     44          6           0       -0.221025    2.606682    0.694609
     45          6           0       -1.471150    3.361431    0.712824
     46          6           0       -2.451718    2.478240    0.484763
     47          6           0       -1.860868    1.183139    0.275988
     48          6           0       -1.531896    4.900438    0.968812
     49          6           0       -3.945763    2.767862    0.423066
     50          6           0       -4.602717    3.116155   -0.915825
     51          6           0       -6.042951    3.573207   -0.745409
     52          8           0       -6.870027    2.793619   -0.170248
     53          8           0       -6.355129    4.716616   -1.175589
     54          1           0        1.389270   -0.178207   -4.355282
     55          1           0        2.024244   -1.212854   -3.098548
     56          1           0        0.468314   -1.560728   -3.813484
     57          1           0       -1.174608    2.877827   -3.367860
     58          1           0       -1.195585    2.051337   -1.828529
     59          1           0       -0.339827    3.565553   -1.995548
     60          1           0        0.773643    1.896672   -3.938128
     61          1           0        1.505788    2.325096   -2.394679
     62          1           0        2.109743   -0.934126    6.204447
     63          1           0        2.195939   -2.537490    5.515346
     64          1           0        3.514736   -1.414925    5.283636
     65          1           0        0.205652    0.186673    4.813922
     66          1           0        2.927961   -1.923339    2.489785
     67          1           0       -0.392355    0.658703    2.410506
     68          1           0       -4.043185    3.899014   -1.383752
     69          1           0       -4.585150    2.251823   -1.546319
     70          1           0       -4.451032    1.907230    0.808962
     71          1           0       -4.138139    3.581391    1.090944
     72          1           0       -7.809588    2.873082   -0.350556
     73          1           0       -3.579094    0.035791   -0.003348
     74          1           0       -4.553827   -1.784293   -0.935104
     75          1           0       -4.312205   -3.455255   -1.327674
     76          1           0       -4.194724   -3.774224    1.243498
     77          1           0       -4.973137   -2.229214    1.299582
     78          1           0       -6.892290   -2.446914   -0.629977
     79          1           0       -2.408249    5.304561    0.506654
     80          1           0       -1.566432    5.085722    2.022081
     81          1           0       -0.662636    5.365731    0.553131
     82          1           0       -1.819468   -5.109630   -1.995260
     83          1           0       -0.900186   -5.459454   -0.551096
     84          1           0       -2.641774   -5.342949   -0.471304
     85          1           0        0.831260   -4.547308   -0.278264
     86          1           0        1.123951    4.055478    1.355436
     87          1           0        5.304416   -0.122191   -0.909516
     88          1           0        6.082589    3.503455   -0.814956
     89          1           0        6.474248    2.277641    0.367013
     90          1           0        6.192293    1.827739   -1.297666
     91          1           0        3.585559   -5.282520   -1.893946
     92          1           0        4.371800   -5.364680   -0.335697
     93          1           0        2.637923   -5.548083   -0.450156
     94          1           0        5.997983   -0.969841   -2.209383
     95          1           0        7.480682   -2.074915   -2.086436
     96          1           0        6.267725   -3.588288   -0.747974
     97          1           0        2.325090    6.070136    0.137905
     98          1           0        3.023444    5.929968    1.848856
     99          1           0        4.862232    5.027395    0.183478
 ---------------------------------------------------------------------

 SCF Done:  E(UPBE1PBE) =  -3879.13167132     A.U. after   73 cycles

 Alpha virt. eigenvalues --    0.91277   0.91693   0.92416   0.92563   0.92755
 Alpha virt. eigenvalues --    0.92889   0.93433   0.93835   0.93969   0.94379
 Alpha virt. eigenvalues --    0.94544   0.94868   0.95245   0.95558   0.95823

  Beta  occ. eigenvalues -- -256.52749 -89.12758 -30.27225 -26.11313 -26.10609
  Beta  occ. eigenvalues --  -26.08689 -19.34423 -19.34060 -19.25395 -19.24245
  Beta  occ. eigenvalues --  -14.54209 -14.50737 -14.50490 -14.49300 -14.49292
  Beta  occ. eigenvalues --  -14.48268 -10.43390 -10.42422 -10.37231 -10.36967
  Beta  occ. eigenvalues --  -10.36748 -10.36578 -10.36477 -10.36266 -10.36232
  Beta  occ. eigenvalues --  -10.36136 -10.35853 -10.35845 -10.34001 -10.33791
  Beta  occ. eigenvalues --  -10.33661 -10.33625 -10.33322 -10.33297 -10.33297
  Beta  occ. eigenvalues --  -10.33289 -10.33266 -10.33167 -10.33038 -10.32970
  Beta  occ. eigenvalues --  -10.32838 -10.32733 -10.32692 -10.32670 -10.32287
  Beta  occ. eigenvalues --  -10.32272 -10.31926 -10.31747 -10.31374 -10.31321
  Beta  occ. eigenvalues --  -10.31165 -10.30857 -10.30667 -10.30652 -10.30609
  Beta  occ. eigenvalues --  -10.29725 -10.29319  -8.10785  -6.04436  -6.04111
  Beta  occ. eigenvalues --   -6.03586  -3.57704  -2.35061  -2.31958  -2.30152
  Beta  occ. eigenvalues --   -1.23776  -1.23397  -1.16212  -1.10360  -1.09533
  Beta  occ. eigenvalues --   -1.09502  -1.08595  -1.08438  -1.07821  -1.00744
  Beta  occ. eigenvalues --   -0.95511  -0.94790  -0.93939  -0.93308  -0.92970
  Beta  occ. eigenvalues --   -0.92779  -0.92354  -0.91969  -0.90661  -0.89282
  Beta  occ. eigenvalues --   -0.88660  -0.87922  -0.87284  -0.86891  -0.86858
  Beta  occ. eigenvalues --   -0.84419  -0.82595  -0.82037  -0.81971  -0.81456
  Beta  occ. eigenvalues --   -0.80003  -0.78903  -0.77833  -0.77112  -0.76868
  Beta  occ. eigenvalues --   -0.76806  -0.74787  -0.74293  -0.73935  -0.71899
  Beta  occ. eigenvalues --   -0.71687  -0.71437  -0.70512  -0.69649  -0.69481
  Beta  occ. eigenvalues --   -0.66945  -0.66820  -0.66091  -0.65751  -0.64213
  Beta  occ. eigenvalues --   -0.63190  -0.63021  -0.62510  -0.61799  -0.60563
  Beta  occ. eigenvalues --   -0.60053  -0.59560  -0.59255  -0.58890  -0.58350
  Beta  occ. eigenvalues --   -0.58119  -0.57964  -0.57660  -0.57551  -0.57325
  Beta  occ. eigenvalues --   -0.57200  -0.56359  -0.55592  -0.55526  -0.55327
  Beta  occ. eigenvalues --   -0.55147  -0.54687  -0.54608  -0.54421  -0.54154
  Beta  occ. eigenvalues --   -0.53867  -0.53742  -0.53532  -0.53421  -0.53313
  Beta  occ. eigenvalues --   -0.52921  -0.52653  -0.52503  -0.52134  -0.52059
  Beta  occ. eigenvalues --   -0.51875  -0.51687  -0.51398  -0.51176  -0.51027
  Beta  occ. eigenvalues --   -0.50948  -0.50781  -0.50438  -0.50064  -0.49972
  Beta  occ. eigenvalues --   -0.49836  -0.49517  -0.49068  -0.48618  -0.48573
  Beta  occ. eigenvalues --   -0.48103  -0.47998  -0.47770  -0.47443  -0.47347
  Beta  occ. eigenvalues --   -0.47116  -0.46784  -0.46382  -0.46052  -0.45232
  Beta  occ. eigenvalues --   -0.44976  -0.44831  -0.44740  -0.44630  -0.44148
  Beta  occ. eigenvalues --   -0.43885  -0.43732  -0.43226  -0.42926  -0.40739
  Beta  occ. eigenvalues --   -0.40446  -0.40115  -0.40065  -0.39465  -0.38750
  Beta  occ. eigenvalues --   -0.38058  -0.37247  -0.35854  -0.35472  -0.35076
  Beta  occ. eigenvalues --   -0.34343  -0.34057  -0.33678  -0.33337  -0.30685
  Beta  occ. eigenvalues --   -0.30139
  Beta virt. eigenvalues --   -0.20439  -0.19035  -0.18720  -0.16006  -0.15675
  Beta virt. eigenvalues --   -0.13752  -0.13065  -0.11376  -0.11012  -0.08725
  Beta virt. eigenvalues --   -0.08130  -0.07398  -0.07031  -0.06857  -0.06429

 Mulliken charges and spin densities:
               1          2
     1  C   -0.354038   0.000763
     2  C    0.116682   0.007168
     3  N   -0.204407   0.000637
     4  C   -0.179587  -0.001339
     5  C    0.058581   0.005515
     6  N   -0.079328   0.041160
     7  C   -0.339048  -0.000295
     8  C   -0.164475   0.004300
     9  S    0.040544   0.063545
    10  C   -0.390472   0.001229
    11  Fe  -0.306534   3.005825
    12  C   -0.460571  -0.050643
    13  C   -0.409104   0.024700
    14  C   -0.447073   0.053786
    15  C   -0.492217   0.005666
    16  N    0.030546  -0.022189
    17  C    0.301033   0.051167
    18  C   -0.003513  -0.000504
    19  C   -0.026526   0.028078
    20  C    0.207027  -0.002063
    21  C   -0.377856  -0.001238
    22  C   -0.413691   0.000053
    23  C   -0.226450   0.000237
    24  C    0.299057   0.000045
    25  O   -0.358824   0.000068
    26  O   -0.278319   0.000006
    27  N    0.070842  -0.055566
    28  C    0.178172  -0.008844
    29  C   -0.031810  -0.016563
    30  C    0.054231   0.005436
    31  C    0.227724  -0.033881
    32  C   -0.371784   0.000843
    33  C   -0.232021  -0.000550
    34  C   -0.247613  -0.000005
    35  N    0.019485   0.029094
    36  C    0.313568  -0.060065
    37  C   -0.101198   0.268476
    38  C    0.023134  -0.105546
    39  C    0.187864   0.021977
    40  C   -0.365218  -0.015188
    41  C   -0.104165   0.708276
    42  C   -0.347186   0.974210
    43  N   -0.073105  -0.090218
    44  C    0.240134   0.018451
    45  C   -0.066199   0.010490
    46  C    0.215133  -0.008144
    47  C    0.196014   0.050352
    48  C   -0.401093  -0.001613
    49  C   -0.522700  -0.000480
    50  C   -0.113194  -0.000020
    51  C    0.261391   0.000041
    52  O   -0.342813  -0.000003
    53  O   -0.354965  -0.000024
    54  H    0.157599   0.001964
    55  H    0.156487   0.001852
    56  H    0.162210   0.000947
    57  H    0.140252   0.000018
    58  H    0.133841   0.000029
    59  H    0.108838   0.000240
    60  H    0.152206   0.002177
    61  H    0.136145   0.001517
    62  H    0.133469   0.000212
    63  H    0.158321   0.000245
    64  H    0.156640   0.000089
    65  H    0.239094   0.000672
    66  H    0.148020   0.000463
    67  H    0.179618   0.001218
    68  H    0.137332   0.000014
    69  H    0.117097  -0.000013
    70  H    0.134977  -0.000145
    71  H    0.157441  -0.000172
    72  H    0.357691   0.000003
    73  H    0.121529   0.002310
    74  H    0.110663  -0.000093
    75  H    0.163305   0.000091
    76  H    0.141087  -0.000014
    77  H    0.135956   0.000048
    78  H    0.334125   0.000005
    79  H    0.162142  -0.000035
    80  H    0.156130   0.000683
    81  H    0.147298   0.000932
    82  H    0.158331   0.001135
    83  H    0.133845   0.000212
    84  H    0.160202   0.000349
    85  H    0.119075  -0.000823
    86  H    0.184087   0.001009
    87  H    0.099062  -0.001813
    88  H    0.142159   0.004168
    89  H    0.163645   0.010410
    90  H    0.133739   0.003323
    91  H    0.159496  -0.000733
    92  H    0.146968  -0.000491
    93  H    0.131406  -0.000128
    94  H    0.121876  -0.000005
    95  H    0.148936  -0.000002
    96  H    0.137092  -0.000281
    97  H    0.156686   0.018307
    98  H    0.158807   0.016119
    99  H    0.151010   0.027376
 Sum of Mulliken charges =   1.00000   5.00000

 Dipole moment (field-independent basis, Debye):
    X=              7.7082    Y=              2.2174    Z=              0.9751  Tot=              8.0798
 Quadrupole moment (field-independent basis, Debye-Ang):
   XX=           -264.4764   YY=           -302.5412   ZZ=           -272.1772
   XY=            -19.6897   XZ=              8.5514   YZ=             19.3724

 Summary of Natural Population Analysis:

                                       Natural Population
                Natural  -----------------------------------------------
    Atom  No    Charge         Core      Valence    Rydberg      Total
 -----------------------------------------------------------------------
      C    1   -0.32164      0.99969     2.31876    0.00319     3.32164
      C    2    0.06401      0.99957     1.92758    0.00883     2.93599
      N    3   -0.23285      0.99968     2.72350    0.00967     3.73285
      C    4   -0.04004      0.99947     2.03105    0.00951     3.04004
      C    5    0.09590      0.99963     1.89328    0.01118     2.90410
      N    6   -0.16506      0.99970     2.63818    0.02718     3.66506
      C    7   -0.31128      0.99972     2.30466    0.00690     3.31128
      C    8   -0.26027      0.99967     2.25085    0.00975     3.26027
      S    9    0.31151      4.99921     2.66665    0.02263     7.68849
      C   10   -0.37209      0.99965     2.36368    0.00876     3.37209
     Fe   11    1.58625      8.99548     2.38665    0.03163    11.41375
      C   12   -0.12756      0.99947     2.11984    0.00825     3.12756
      C   13   -0.09913      0.99945     2.09153    0.00815     3.09913
      C   14   -0.09901      0.99940     2.09105    0.00856     3.09901
      C   15   -0.12536      0.99948     2.11749    0.00839     3.12536
      N   16   -0.19364      0.99968     2.67618    0.01778     3.69364
      C   17    0.10146      0.99952     1.88933    0.00969     2.89854
      C   18   -0.00700      0.99930     1.99830    0.00939     3.00700
      C   19    0.01181      0.99937     1.98051    0.00831     2.98819
      C   20    0.08634      0.99951     1.90373    0.01042     2.91366
      C   21   -0.31720      0.99969     2.31396    0.00355     3.31720
      C   22   -0.21245      0.99966     2.20594    0.00685     3.21245
      C   23   -0.25880      0.99961     2.25072    0.00846     3.25880
      C   24    0.37534      0.99973     1.60820    0.01673     2.62466
      O   25   -0.28288      0.99990     3.27138    0.01161     4.28288
      O   26   -0.31147      0.99982     3.29641    0.01524     4.31147
      N   27   -0.21928      0.99968     2.69243    0.02717     3.71928
      C   28    0.07427      0.99948     1.91573    0.01052     2.92573
      C   29   -0.00347      0.99939     1.99622    0.00787     3.00347
      C   30   -0.03328      0.99936     2.02399    0.00993     3.03328
      C   31    0.07555      0.99946     1.91422    0.01077     2.92445
      C   32   -0.31593      0.99970     2.31266    0.00358     3.31593
      C   33   -0.09980      0.99955     2.09135    0.00890     3.09980
      C   34   -0.18400      0.99958     2.17642    0.00799     3.18400
      N   35   -0.17143      0.99969     2.65396    0.01778     3.67143
      C   36    0.05983      0.99948     1.93007    0.01062     2.94017
      C   37    0.13802      0.99922     1.85183    0.01093     2.86198
      C   38   -0.08418      0.99929     2.07460    0.01028     3.08418
      C   39    0.11089      0.99950     1.87937    0.01024     2.88911
      C   40   -0.32310      0.99970     2.32016    0.00324     3.32310
      C   41    0.26539      0.99953     1.72721    0.00787     2.73461
      C   42    0.28442      0.99956     1.70808    0.00794     2.71558
      N   43   -0.25714      0.99968     2.73320    0.02425     3.75714
      C   44    0.09180      0.99951     1.89789    0.01080     2.90820
      C   45    0.00468      0.99936     1.98753    0.00843     2.99532
      C   46   -0.01719      0.99936     2.00845    0.00938     3.01719
      C   47    0.08646      0.99950     1.90373    0.01031     2.91354
      C   48   -0.32003      0.99969     2.31677    0.00357     3.32003
      C   49   -0.21093      0.99965     2.20489    0.00639     3.21093
      C   50   -0.24346      0.99962     2.23561    0.00823     3.24346
      C   51    0.37859      0.99977     1.60397    0.01767     2.62141
      O   52   -0.33125      0.99982     3.31869    0.01273     4.33125
      O   53   -0.29248      0.99990     3.28068    0.01190     4.29248
      H   54    0.11947      0.00000     0.37995    0.00059     0.38053
      H   55    0.11555      0.00000     0.38359    0.00086     0.38445
      H   56    0.11951      0.00000     0.38006    0.00042     0.38049
      H   57    0.11199      0.00000     0.38749    0.00052     0.38801
      H   58    0.11154      0.00000     0.38753    0.00093     0.38846
      H   59    0.10861      0.00000     0.39064    0.00074     0.39139
      H   60    0.11707      0.00000     0.38224    0.00070     0.38293
      H   61    0.11247      0.00000     0.38648    0.00105     0.38753
      H   62    0.11261      0.00000     0.38680    0.00058     0.38739
      H   63    0.11893      0.00000     0.38046    0.00061     0.38107
      H   64    0.12040      0.00000     0.37907    0.00053     0.37960
      H   65    0.21019      0.00000     0.28902    0.00078     0.28981
      H   66    0.11313      0.00000     0.38617    0.00070     0.38687
      H   67    0.11559      0.00000     0.38319    0.00122     0.38441
      H   68    0.12030      0.00000     0.37901    0.00069     0.37970
      H   69    0.11165      0.00000     0.38763    0.00072     0.38835
      H   70    0.10911      0.00000     0.38985    0.00105     0.39089
      H   71    0.11312      0.00000     0.38584    0.00104     0.38688
      H   72    0.25999      0.00000     0.23873    0.00128     0.24001
      H   73    0.11369      0.00000     0.38529    0.00102     0.38631
      H   74    0.10022      0.00000     0.39854    0.00124     0.39978
      H   75    0.11492      0.00000     0.38435    0.00073     0.38508
      H   76    0.12295      0.00000     0.37632    0.00073     0.37705
      H   77    0.11252      0.00000     0.38678    0.00069     0.38748
      H   78    0.24670      0.00000     0.25243    0.00087     0.25330
      H   79    0.11680      0.00000     0.38256    0.00064     0.38320
      H   80    0.11599      0.00000     0.38333    0.00068     0.38401
      H   81    0.11355      0.00000     0.38579    0.00066     0.38645
      H   82    0.11699      0.00000     0.38234    0.00067     0.38301
      H   83    0.11001      0.00000     0.38943    0.00056     0.38999
      H   84    0.11743      0.00000     0.38188    0.00069     0.38257
      H   85    0.11549      0.00000     0.38308    0.00143     0.38451
      H   86    0.11927      0.00000     0.37985    0.00088     0.38073
      H   87    0.12135      0.00000     0.37732    0.00133     0.37865
      H   88    0.11574      0.00000     0.38358    0.00068     0.38426
      H   89    0.12195      0.00000     0.37744    0.00060     0.37805
      H   90    0.11189      0.00000     0.38751    0.00060     0.38811
      H   91    0.11712      0.00000     0.38217    0.00071     0.38288
      H   92    0.11567      0.00000     0.38364    0.00069     0.38433
      H   93    0.10878      0.00000     0.39066    0.00056     0.39122
      H   94    0.09311      0.00000     0.40603    0.00086     0.40689
      H   95    0.10909      0.00000     0.39030    0.00061     0.39091
      H   96    0.10885      0.00000     0.39027    0.00087     0.39115
      H   97    0.11465      0.00000     0.38477    0.00058     0.38535
      H   98    0.11600      0.00000     0.38348    0.00052     0.38400
      H   99    0.13017      0.00000     0.36905    0.00077     0.36983
 =======================================================================
   * Total *    3.00003     64.97310   135.40107    0.62580   200.99997

 Normal termination of Gaussian 16 at Sat Apr  8 01:32:26 2023.
