 Gaussian 16, Revision A.03,

 ----------------------------------------------------------------------
 # PBE1PBE/def2TZVP empiricaldispersion=GD3BJ int=(grid=ultrafine) geom
 =check pop=nbo
 ----------------------------------------------------------------------

 ---------
 7abb_II_Q
 ---------
 Structure from the checkpoint file:  "7abb_II_Q.chk"
 Charge =  0 Multiplicity = 5

 SCF Done:  E(UPBE1PBE) =  -3537.51568244     A.U. after   46 cycles

 Summary of Natural Population Analysis:

                                       Natural Population
                Natural  -----------------------------------------------
    Atom  No    Charge         Core      Valence    Rydberg      Total
 -----------------------------------------------------------------------
      C    1   -0.34822      0.99961     2.34056    0.00805     3.34822
      S    2    0.15954      4.99902     2.81912    0.02232     7.84046
      H    3    0.13146      0.00000     0.36788    0.00065     0.36854
      H    4    0.11386      0.00000     0.38561    0.00053     0.38614
     Fe    5    2.04335      8.98622     1.95581    0.01461    10.95665
      C    6   -0.11750      0.99946     2.10914    0.00890     3.11750
      C    7   -0.10851      0.99951     2.10267    0.00633     3.10851
      C    8   -0.12098      0.99949     2.11356    0.00792     3.12098
      C    9   -0.10611      0.99948     2.09853    0.00810     3.10611
      N   10   -0.21681      0.99970     2.69684    0.02027     3.71681
      C   11    0.07638      0.99953     1.91413    0.00996     2.92362
      C   12   -0.02537      0.99933     2.01675    0.00929     3.02537
      C   13   -0.00801      0.99938     2.00050    0.00813     3.00801
      C   14    0.06123      0.99955     1.92841    0.01081     2.93877
      C   15   -0.30733      0.99959     2.30440    0.00334     3.30733
      C   16   -0.19011      0.99951     2.18444    0.00615     3.19011
      C   17   -0.24301      0.99950     2.23586    0.00765     3.24301
      C   18    0.38752      0.99979     1.59473    0.01796     2.61248
      O   19   -0.33721      0.99980     3.32318    0.01423     4.33721
      O   20   -0.29296      0.99990     3.28127    0.01180     4.29296
      N   21   -0.19976      0.99970     2.68299    0.01707     3.69976
      C   22    0.08209      0.99955     1.90779    0.01058     2.91791
      C   23   -0.00389      0.99937     1.99620    0.00831     3.00389
      C   24   -0.01897      0.99941     2.01026    0.00930     3.01897
      C   25    0.07673      0.99953     1.91465    0.00909     2.92327
      C   26   -0.30069      0.99957     2.29771    0.00341     3.30069
      C   27   -0.20255      0.99969     2.19647    0.00639     3.20255
      C   28   -0.28855      0.99962     2.28620    0.00273     3.28855
      N   29   -0.18661      0.99944     2.66925    0.01792     3.68661
      C   30    0.07771      0.99951     1.91144    0.01135     2.92229
      C   31   -0.01042      0.99940     2.00286    0.00816     3.01042
      C   32   -0.00200      0.99941     1.99413    0.00846     3.00200
      C   33    0.06793      0.99952     1.92220    0.01035     2.93207
      C   34   -0.30083      0.99957     2.29772    0.00353     3.30083
      C   35   -0.20787      0.99968     2.20308    0.00511     3.20787
      C   36   -0.29115      0.99960     2.28839    0.00316     3.29115
      N   37   -0.19948      0.99971     2.68176    0.01800     3.69948
      C   38    0.04175      0.99948     1.94972    0.00904     2.95825
      C   39    0.01956      0.99956     1.97285    0.00803     2.98044
      C   40   -0.03156      0.99957     2.02384    0.00815     3.03156
      C   41    0.08027      0.99949     1.91003    0.01021     2.91973
      C   42   -0.30940      0.99959     2.30656    0.00326     3.30940
      C   43   -0.20059      0.99955     2.19500    0.00604     3.20059
      C   44   -0.24064      0.99952     2.23343    0.00769     3.24064
      C   45    0.38690      0.99978     1.59485    0.01846     2.61310
      O   46   -0.28060      0.99989     3.26888    0.01183     4.28060
      O   47   -0.34635      0.99979     3.33162    0.01494     4.34635
      H   48    0.09782      0.00000     0.40118    0.00100     0.40218
      H   49    0.09943      0.00000     0.39922    0.00135     0.40057
      H   50    0.10480      0.00000     0.39335    0.00184     0.39520
      H   51    0.10365      0.00000     0.39452    0.00182     0.39635
      H   52    0.10492      0.00000     0.39434    0.00075     0.39508
      H   53    0.10332      0.00000     0.39602    0.00067     0.39668
      H   54    0.10453      0.00000     0.39474    0.00074     0.39547
      H   55    0.10649      0.00000     0.39242    0.00108     0.39351
      H   56    0.10151      0.00000     0.39746    0.00103     0.39849
      H   57    0.10856      0.00000     0.39076    0.00068     0.39144
      H   58    0.10872      0.00000     0.39061    0.00067     0.39128
      H   59    0.10379      0.00000     0.39546    0.00075     0.39621
      H   60    0.10463      0.00000     0.39462    0.00076     0.39537
      H   61    0.10094      0.00000     0.39849    0.00057     0.39906
      H   62    0.10549      0.00000     0.39359    0.00092     0.39451
      H   63    0.09786      0.00000     0.40143    0.00071     0.40214
      H   64    0.10008      0.00000     0.39932    0.00059     0.39992
      H   65    0.09778      0.00000     0.40151    0.00071     0.40222
      H   66    0.10582      0.00000     0.39347    0.00071     0.39418
      H   67    0.10418      0.00000     0.39509    0.00073     0.39582
      H   68    0.10171      0.00000     0.39772    0.00057     0.39829
      H   69    0.10576      0.00000     0.39338    0.00085     0.39424
      H   70    0.10077      0.00000     0.39870    0.00053     0.39923
      H   71    0.09978      0.00000     0.39948    0.00074     0.40022
      H   72    0.10033      0.00000     0.39912    0.00055     0.39967
      H   73    0.10565      0.00000     0.39361    0.00073     0.39435
      H   74    0.10172      0.00000     0.39769    0.00059     0.39828
      H   75    0.10647      0.00000     0.39281    0.00071     0.39353
      H   76    0.10325      0.00000     0.39566    0.00108     0.39675
      H   77    0.09852      0.00000     0.40012    0.00136     0.40148
      H   78    0.11063      0.00000     0.38874    0.00063     0.38937
      H   79    0.11171      0.00000     0.38763    0.00066     0.38829
      H   80    0.25854      0.00000     0.24012    0.00134     0.24146
      H   81    0.25988      0.00000     0.23889    0.00123     0.24012
      H   82    0.10768      0.00000     0.39139    0.00092     0.39232
      H   83    0.10241      0.00000     0.39675    0.00084     0.39759
      H   84    0.11430      0.00000     0.38510    0.00060     0.38570
      H   85    0.08433      0.00000     0.41298    0.00269     0.41567
 =======================================================================
   * Total *    2.00000     56.96690   116.55078    0.48232   174.00000

 Normal termination of Gaussian 16 at Mon Sep 12 13:31:15 2022.
 Gaussian 16:  ES64L-G16RevA.03 25-Dec-2016

 ----------------------------------------------------------------------
 # PBE1PBE/def2TZVP empiricaldispersion=GD3BJ int=(grid=ultrafine) geom
 =check guess=read scrf=(smd,solvent=Chloroform)
 ----------------------------------------------------------------------

 --------------
 7abb_II_Q_solv
 --------------
 Structure from the checkpoint file:  "7abb_II_Q.chk"
 Charge =  0 Multiplicity = 5

                         Standard orientation:
 ---------------------------------------------------------------------
 Center     Atomic      Atomic             Coordinates (Angstroms)
 Number     Number       Type             X           Y           Z
 ---------------------------------------------------------------------
      1          6           0       -0.046732   -0.771680    2.872277
      2         16           0       -1.374019    0.097309    2.012425
      3          1           0        0.289432   -1.591873    2.272962
      4          1           0       -0.409708   -1.139714    3.809134
      5         26           0       -1.393013    0.175637   -0.156078
      6          6           0        2.469015    0.105011   -0.134809
      7          6           0       -0.702768   -3.508412   -0.127255
      8          6           0       -4.387103   -0.315051   -0.256680
      9          6           0       -1.204393    3.271073   -0.679160
     10          7           0        0.560297   -1.411816   -0.163794
     11          6           0        1.927066   -1.144679   -0.084506
     12          6           0        2.700368   -2.363466    0.036107
     13          6           0        1.793213   -3.356639    0.047244
     14          6           0        0.473821   -2.787405   -0.078344
     15          6           0        2.051625   -4.871381    0.137036
     16          6           0        4.260308   -2.483431    0.174182
     17          6           0        4.996020   -2.558529   -1.157418
     18          6           0        6.485577   -2.727630   -0.910710
     19          8           0        7.202252   -2.678361   -1.936702
     20          8           0        6.886589   -2.901902    0.269841
     21          7           0       -2.285205   -1.608310   -0.252991
     22          6           0       -1.981957   -2.954429   -0.161782
     23          6           0       -3.220073   -3.670605   -0.089486
     24          6           0       -4.232574   -2.784444   -0.100024
     25          6           0       -3.671135   -1.484246   -0.227574
     26          6           0       -3.243681   -5.207673    0.028720
     27          6           0       -5.732514   -2.927017   -0.069017
     28          6           0       -6.267946   -4.256441    0.354683
     29          7           0       -2.490748    1.233963   -0.461067
     30          6           0       -3.829611    0.936224   -0.349303
     31          6           0       -4.584944    2.160107   -0.379665
     32          6           0       -3.713975    3.188509   -0.490274
     33          6           0       -2.395456    2.602370   -0.561507
     34          6           0       -6.109437    2.217437   -0.264343
     35          6           0       -3.945168    4.704736   -0.600992
     36          6           0       -5.269714    5.302264   -0.126744
     37          7           0        0.373989    1.374724   -0.399832
     38          6           0        0.030492    2.714569   -0.580823
     39          6           0        1.239206    3.475123   -0.631299
     40          6           0        2.381195    2.534373   -0.472415
     41          6           0        1.750275    1.242614   -0.310919
     42          6           0        1.320466    4.993381   -0.834072
     43          6           0        3.885682    2.856041   -0.466407
     44          6           0        4.300751    3.074676    0.968261
     45          6           0        5.799170    3.294304    1.047876
     46          8           0        6.280523    3.770718    2.098150
     47          8           0        6.480444    2.985312    0.049627
     48          1           0        3.441085    0.186790   -0.036949
     49          1           0       -0.633804   -4.486192   -0.137642
     50          1           0       -5.364731   -0.376313   -0.208931
     51          1           0       -1.248058    4.235840   -0.849197
     52          1           0        1.617417   -5.230010    0.938683
     53          1           0        3.016294   -5.035195    0.187300
     54          1           0        1.687021   -5.311970   -0.658928
     55          1           0        4.463806   -3.282984    0.684627
     56          1           0        4.587267   -1.712837    0.663807
     57          1           0        4.841886   -1.741358   -1.658077
     58          1           0        4.665500   -3.314794   -1.667143
     59          1           0       -3.717274   -5.582474   -0.730444
     60          1           0       -3.694149   -5.461825    0.849268
     61          1           0       -2.334717   -5.544860    0.041827
     62          1           0       -6.104464   -2.718677   -1.050417
     63          1           0       -5.948325   -4.941688   -0.253650
     64          1           0       -7.237200   -4.235182    0.338135
     65          1           0       -5.963499   -4.455558    1.254580
     66          1           0       -6.478346    2.627966   -1.062013
     67          1           0       -6.355683    2.741891    0.512886
     68          1           0       -6.460104    1.317888   -0.172694
     69          1           0       -3.163941    5.186527   -0.051028
     70          1           0       -5.099976    5.945229    0.579595
     71          1           0       -5.841275    4.595172    0.210628
     72          1           0       -5.708724    5.746624   -0.868977
     73          1           0        1.764054    5.402382   -0.062576
     74          1           0        0.416096    5.360116   -0.923545
     75          1           0        1.833441    5.186720   -1.646157
     76          1           0        4.052672    3.659589   -0.983009
     77          1           0        4.383479    2.113003   -0.843319
     78          1           0        4.061463    2.295686    1.493684
     79          1           0        3.842306    3.853824    1.320263
     80          1           0        7.747368   -3.430832   -2.178023
     81          1           0        6.906062    2.125910    0.006291
     82          1           0       -3.827262    4.970022   -1.630857
     83          1           0       -6.120962   -2.186493    0.598541
     84          1           0        0.767117   -0.098735    3.044599
     85          1           0       -2.326119    0.680880    2.697296
 ---------------------------------------------------------------------

 SCF Done:  E(UPBE1PBE) =  -3537.57130887     A.U. after   33 cycles

 Alpha virt. eigenvalues --    0.40887   0.40954   0.41379   0.41839   0.42145
 Alpha virt. eigenvalues --    0.42165   0.42566   0.42793   0.43092   0.43193
 Alpha virt. eigenvalues --    0.43373   0.43584   0.43830   0.43896   0.44149

  Beta  occ. eigenvalues -- -256.33895 -89.02397 -30.07528 -25.91030 -25.90475
  Beta  occ. eigenvalues --  -25.90310 -19.25885 -19.24854 -19.18977 -19.18377
  Beta  occ. eigenvalues --  -14.38395 -14.36265 -14.35579 -14.34937 -10.35891
  Beta  occ. eigenvalues --  -10.35166 -10.25208 -10.24760 -10.24562 -10.24191
  Beta  occ. eigenvalues --  -10.24045 -10.24022 -10.23794 -10.23783 -10.23762
  Beta  occ. eigenvalues --  -10.22750 -10.22515 -10.22175 -10.22090 -10.21764
  Beta  occ. eigenvalues --  -10.21631 -10.21545 -10.21295 -10.21132 -10.21071
  Beta  occ. eigenvalues --  -10.20832 -10.20802 -10.20640 -10.20146 -10.20054
  Beta  occ. eigenvalues --  -10.19537 -10.19517 -10.19478 -10.17395 -10.17345
  Beta  occ. eigenvalues --  -10.17318 -10.17001 -10.16029 -10.15697  -8.00662
  Beta  occ. eigenvalues --   -5.94316  -5.93990  -5.93468  -3.39237  -2.15202
  Beta  occ. eigenvalues --   -2.14164  -2.13415  -1.16623  -1.16341  -1.03234
  Beta  occ. eigenvalues --   -1.02892  -0.99263  -0.96648  -0.95620  -0.94419
  Beta  occ. eigenvalues --   -0.84804  -0.83811  -0.83500  -0.83267  -0.82819
  Beta  occ. eigenvalues --   -0.81963  -0.81342  -0.81062  -0.79428  -0.78835
  Beta  occ. eigenvalues --   -0.78245  -0.77971  -0.76545  -0.74911  -0.73878
  Beta  occ. eigenvalues --   -0.73318  -0.72870  -0.70573  -0.70301  -0.68734
  Beta  occ. eigenvalues --   -0.67997  -0.67171  -0.66653  -0.66362  -0.65600
  Beta  occ. eigenvalues --   -0.64871  -0.64404  -0.59522  -0.59358  -0.56681
  Beta  occ. eigenvalues --   -0.55865  -0.55470  -0.54043  -0.53578  -0.53379
  Beta  occ. eigenvalues --   -0.53200  -0.52092  -0.51700  -0.51554  -0.50669
  Beta  occ. eigenvalues --   -0.49889  -0.49574  -0.49077  -0.48270  -0.48161
  Beta  occ. eigenvalues --   -0.47960  -0.47873  -0.47543  -0.46900  -0.46550
  Beta  occ. eigenvalues --   -0.46064  -0.45852  -0.45360  -0.45067  -0.44668
  Beta  occ. eigenvalues --   -0.44554  -0.44332  -0.44206  -0.44070  -0.43771
  Beta  occ. eigenvalues --   -0.43626  -0.43241  -0.42956  -0.42873  -0.42735
  Beta  occ. eigenvalues --   -0.41526  -0.41205  -0.41139  -0.40991  -0.40525
  Beta  occ. eigenvalues --   -0.40247  -0.39802  -0.39534  -0.39271  -0.39179
  Beta  occ. eigenvalues --   -0.38607  -0.38036  -0.37923  -0.37471  -0.37392
  Beta  occ. eigenvalues --   -0.37094  -0.36908  -0.36541  -0.36160  -0.35655
  Beta  occ. eigenvalues --   -0.35208  -0.34963  -0.34582  -0.34294  -0.33994
  Beta  occ. eigenvalues --   -0.33969  -0.33703  -0.33364  -0.33031  -0.32230
  Beta  occ. eigenvalues --   -0.30094  -0.29272  -0.28949  -0.28423  -0.27880
  Beta  occ. eigenvalues --   -0.27544  -0.26966  -0.26508  -0.23900  -0.22895
  Beta  occ. eigenvalues --   -0.21656  -0.19969  -0.19400  -0.16659
  Beta virt. eigenvalues --   -0.07810  -0.07089  -0.02077  -0.01127  -0.01043
  Beta virt. eigenvalues --   -0.00837  -0.00712   0.00222   0.01977   0.02456
  Beta virt. eigenvalues --    0.03000   0.03870   0.05020   0.05664   0.05878

 Mulliken charges and spin densities:
               1          2
     1  C   -0.332856   0.023271
     2  S   -0.173898   0.068585
     3  H    0.177672  -0.001247
     4  H    0.175003   0.000753
     5  Fe   0.450017   3.770860
     6  C   -0.542456  -0.014588
     7  C   -0.542874   0.001145
     8  C   -0.561832   0.010711
     9  C   -0.581546   0.005423
    10  N   -0.291559   0.019545
    11  C    0.337760   0.008547
    12  C   -0.040004  -0.007190
    13  C   -0.051243   0.006623
    14  C    0.202656  -0.004382
    15  C   -0.388592   0.000121
    16  C   -0.389485   0.001202
    17  C   -0.212568  -0.000379
    18  C    0.307001  -0.000005
    19  O   -0.358551  -0.000004
    20  O   -0.406506   0.000002
    21  N   -0.139655   0.032657
    22  C    0.239500  -0.001994
    23  C   -0.097563   0.012173
    24  C   -0.137987   0.001583
    25  C    0.342348   0.003760
    26  C   -0.374530   0.001425
    27  C   -0.202070   0.000273
    28  C   -0.381943   0.000145
    29  N   -0.199411  -0.005880
    30  C    0.325182   0.009005
    31  C   -0.105113  -0.005152
    32  C   -0.152633   0.021249
    33  C    0.234156  -0.012299
    34  C   -0.391728   0.002579
    35  C   -0.181560   0.000911
    36  C   -0.365348   0.000788
    37  N   -0.206776   0.039707
    38  C    0.388336  -0.017430
    39  C   -0.134375   0.033992
    40  C   -0.080354  -0.035329
    41  C    0.253197   0.012905
    42  C   -0.384493  -0.000859
    43  C   -0.254738   0.004608
    44  C   -0.233304  -0.001671
    45  C    0.301867  -0.000352
    46  O   -0.393243  -0.000145
    47  O   -0.370240   0.000007
    48  H    0.153948  -0.000060
    49  H    0.160649  -0.000355
    50  H    0.157640   0.000207
    51  H    0.158967  -0.000022
    52  H    0.149803   0.000077
    53  H    0.143675   0.000101
    54  H    0.148154   0.000051
    55  H    0.145637   0.000039
    56  H    0.132303  -0.000097
    57  H    0.145389   0.000136
    58  H    0.148312  -0.000034
    59  H    0.153271   0.000131
    60  H    0.149466   0.000126
    61  H    0.137748  -0.000034
    62  H    0.120371   0.000070
    63  H    0.131333  -0.000008
    64  H    0.142247   0.000086
    65  H    0.128431  -0.000006
    66  H    0.159917  -0.000130
    67  H    0.151240   0.000421
    68  H    0.140055   0.000093
    69  H    0.127721  -0.000079
    70  H    0.134761   0.000067
    71  H    0.124628  -0.000028
    72  H    0.132459   0.000095
    73  H    0.146264   0.000713
    74  H    0.130681   0.000061
    75  H    0.149166   0.000738
    76  H    0.142471  -0.000156
    77  H    0.118816  -0.000523
    78  H    0.150313   0.000253
    79  H    0.138770  -0.000002
    80  H    0.390037  -0.000015
    81  H    0.395415  -0.000007
    82  H    0.126068   0.000290
    83  H    0.116392   0.000101
    84  H    0.160117   0.001083
    85  H    0.183705   0.010967
 Sum of Mulliken charges =  -0.00000   4.00000

 Dipole moment (field-independent basis, Debye):
    X=             -4.7464    Y=             -3.8259    Z=             -2.1857  Tot=              6.4764
 Quadrupole moment (field-independent basis, Debye-Ang):
   XX=           -256.3091   YY=           -252.7734   ZZ=           -277.3783
   XY=            -37.8065   XZ=            -45.7410   YZ=             -3.0414

 Normal termination of Gaussian 16 at Tue Sep 13 01:02:06 2022.
