 Gaussian 16, Revision A.03,

 ---------------------------------------------------------------------
 # polar def2tzvp empiricaldispersion=gd3bj int=grid=ultrafine pbe1pbe
 ---------------------------------------------------------------------

 ---------
 1aw3_II_S
 ---------
 Symbolic Z-matrix:
 Charge =  0 Multiplicity = 1

 SCF Done:  E(RPBE1PBE) =  -3627.67974758     A.U. after   21 cycles

  Exact polarizability: 834.592   2.795 783.692  17.767 -43.134 454.345
 Approx polarizability:1419.228   7.7631478.307  48.874-128.792 707.424

 Normal termination of Gaussian 16 at Sat Feb  4 19:56:58 2023.
 Gaussian 16:  ES64L-G16RevA.03 25-Dec-2016

 ----------------------------------------------------------------------
 # PBE1PBE/def2TZVP empiricaldispersion=GD3BJ int=(grid=ultrafine) geom
 =check guess=read pop=nbo scf=qc
 ----------------------------------------------------------------------

 -------------
 1aw3_II_S_nbo
 -------------
 Structure from the checkpoint file:  "1aw3_II_S.chk"
 Charge =  0 Multiplicity = 1

                         Standard orientation:
 ---------------------------------------------------------------------
 Center     Atomic      Atomic             Coordinates (Angstroms)
 Number     Number       Type             X           Y           Z
 ---------------------------------------------------------------------
      1          6           0       -1.448881   -0.351831    5.649911
      2          6           0       -1.144827    0.175470    4.267019
      3          7           0       -0.957151    1.500292    3.965529
      4          6           0       -1.138233   -0.513932    3.081518
      5          6           0       -0.831937    1.602772    2.635928
      6          7           0       -0.954543    0.405563    2.043046
      7          1           0       -2.458239   -0.705400    5.682857
      8          1           0       -1.322159    0.432559    6.366552
      9          1           0       -0.960672    2.267558    4.626269
     10          1           0       -1.276381   -1.572822    2.958989
     11          1           0       -0.678712    2.538031    2.129997
     12          6           0       -0.457788   -2.083737   -5.006504
     13          6           0       -0.591298   -1.060343   -3.914468
     14          7           0       -0.892034    0.271427   -4.074143
     15          6           0       -0.526984   -1.323384   -2.573249
     16          6           0       -0.998357    0.792493   -2.836554
     17          7           0       -0.797932   -0.143303   -1.882453
     18          1           0       -1.215552   -1.919440   -5.743864
     19          1           0       -0.569708   -3.063957   -4.592329
     20          1           0       -1.052591    0.759223   -4.954034
     21          1           0       -0.321712   -2.283608   -2.129788
     22          1           0       -1.234304    1.829589   -2.667156
     23          6           0        2.513473   -0.429642    0.336605
     24          6           0       -1.384778   -3.400560    0.689444
     25          6           0       -4.296533    0.417350   -0.310072
     26          6           0       -0.405767    3.450168   -0.370845
     27          6           0        1.690144   -1.552592    0.432324
     28          6           0        2.189766   -2.901512    0.538967
     29          6           0        1.109553   -3.736367    0.711937
     30          6           0       -0.078678   -2.918809    0.606922
     31          6           0        1.186924   -5.230017    0.938612
     32          6           0        3.636283   -3.320166    0.414843
     33          6           0        4.245663   -2.953623   -0.942011
     34          6           0        5.647330   -3.511565   -1.143925
     35          8           0        5.982278   -4.500007   -0.455878
     36          8           0        6.357568   -2.944754   -2.001081
     37          6           0       -2.495499   -2.590557    0.492207
     38          6           0       -3.858298   -3.067930    0.538492
     39          6           0       -4.641805   -1.993248    0.202751
     40          6           0       -3.811682   -0.837326    0.017569
     41          6           0       -4.321308   -4.461238    0.889527
     42          6           0       -6.150605   -1.971830    0.139032
     43          6           0       -6.824525   -2.939451   -0.501647
     44          6           0       -3.488434    1.547092   -0.401560
     45          6           0       -3.966747    2.853544   -0.774129
     46          6           0       -2.898880    3.705692   -0.657177
     47          6           0       -1.710255    2.939488   -0.389247
     48          6           0       -5.343111    3.200752   -1.267960
     49          6           0       -2.921076    5.180673   -0.988059
     50          6           0       -3.947155    5.979141   -0.618587
     51          6           0        0.729342    2.646868   -0.190646
     52          6           0        2.095599    3.120848   -0.213362
     53          6           0        2.917587    2.037714    0.026292
     54          6           0        2.060022    0.877236    0.145518
     55          6           0        2.541620    4.536042   -0.495706
     56          6           0        4.438267    2.017952    0.004840
     57          6           0        5.154360    3.116395    0.801482
     58          6           0        6.662578    2.970983    0.664109
     59          8           0        7.257943    2.330874    1.556033
     60          8           0        7.187969    3.494637   -0.341552
     61          7           0        0.334289   -1.620577    0.411786
     62          7           0       -2.526479   -1.238624    0.215202
     63          7           0       -2.131315    1.643964   -0.216250
     64          7           0        0.775966    1.299035    0.011763
     65         26           0       -0.887415    0.030362    0.104915
     66          1           0       -1.555534   -4.448745    0.866328
     67          1           0       -5.354131    0.500555   -0.494227
     68          1           0       -0.276780    4.509451   -0.522566
     69          1           0       -6.670709   -1.056618    0.347170
     70          1           0       -2.066654    5.619640   -1.474034
     71          1           0        3.568084   -0.595609    0.451880
     72          1           0        1.844035   -5.435218    1.782936
     73          1           0        0.216769   -5.672316    1.154150
     74          1           0        1.599062   -5.707902    0.050030
     75          1           0        4.228560   -2.853126    1.194594
     76          1           0        3.712160   -4.400031    0.542454
     77          1           0        3.594848   -3.353332   -1.703057
     78          1           0        4.296911   -1.878838   -1.092144
     79          1           0       -3.792366   -4.820598    1.770473
     80          1           0       -5.384969   -4.460714    1.118845
     81          1           0       -4.137945   -5.127718    0.048812
     82          1           0       -6.285091   -3.395439   -1.305582
     83          1           0       -7.903600   -2.914978   -0.535991
     84          1           0       -5.967029    3.523551   -0.433805
     85          1           0       -5.245141    4.000488   -2.001078
     86          1           0       -5.801245    2.347387   -1.761480
     87          1           0       -4.731124    5.601047    0.019994
     88          1           0       -3.865649    7.046772   -0.757982
     89          1           0        2.764315    5.040166    0.445051
     90          1           0        3.428866    4.517674   -1.129166
     91          1           0        1.778154    5.100972   -1.024485
     92          1           0        4.813532    1.093968    0.437656
     93          1           0        4.766686    2.032529   -1.035447
     94          1           0        4.895721    4.110882    0.454578
     95          1           0        4.889033    3.036727    1.852884
     96          1           0        0.506972   -1.996587   -5.460975
     97          1           0       -0.781568   -1.156076    5.879658
     98          1           0        7.006387    2.441992    2.475801
     99          1           0        7.020152   -2.305598   -1.728937
 ---------------------------------------------------------------------

 SCF Done:  E(RPBE1PBE) =  -3627.67974758     a.u. after    1 cycles

 The electronic state is 1-A.
 Alpha  occ. eigenvalues -- -256.29892 -30.06705 -25.89462 -25.89202 -25.89164
 Alpha  occ. eigenvalues --  -19.27391 -19.25411 -19.18143 -19.18142 -14.45010
 Alpha  occ. eigenvalues --  -14.44761 -14.39232 -14.39064 -14.36204 -14.36143
 Alpha  occ. eigenvalues --  -14.35926 -14.35856 -10.35470 -10.35076 -10.28008
 Alpha  occ. eigenvalues --  -10.27545 -10.25861 -10.25819 -10.24396 -10.24211
 Alpha  occ. eigenvalues --  -10.24049 -10.24005 -10.23978 -10.23905 -10.23647
 Alpha  occ. eigenvalues --  -10.23553 -10.23530 -10.23326 -10.23154 -10.23137
 Alpha  occ. eigenvalues --  -10.23125 -10.22854 -10.22651 -10.22492 -10.22409
 Alpha  occ. eigenvalues --  -10.22395 -10.21960 -10.21900 -10.21781 -10.21722
 Alpha  occ. eigenvalues --  -10.21690 -10.21687 -10.21638 -10.21620 -10.21585
 Alpha  occ. eigenvalues --  -10.21579 -10.21358 -10.21314 -10.21078 -10.21045
 Alpha  occ. eigenvalues --  -10.21024 -10.20752 -10.20691 -10.20506  -3.41194
 Alpha  occ. eigenvalues --   -2.17046  -2.16527  -2.16474  -1.17717  -1.16463
 Alpha  occ. eigenvalues --   -1.05170  -1.04963  -1.03221  -1.02751  -0.97067
 Alpha  occ. eigenvalues --   -0.96222  -0.96160  -0.95286  -0.90259  -0.90146
 Alpha  occ. eigenvalues --   -0.83321  -0.82882  -0.82196  -0.81771  -0.81492
 Alpha  occ. eigenvalues --   -0.80655  -0.80543  -0.80455  -0.80289  -0.78362
 Alpha  occ. eigenvalues --   -0.77730  -0.76731  -0.76091  -0.75101  -0.73452
 Alpha  occ. eigenvalues --   -0.72058  -0.71875  -0.71642  -0.71138  -0.70216
 Alpha  occ. eigenvalues --   -0.69893  -0.69207  -0.68543  -0.66402  -0.65592
 Alpha  occ. eigenvalues --   -0.64987  -0.64541  -0.64306  -0.63848  -0.61651
 Alpha  occ. eigenvalues --   -0.61607  -0.60412  -0.59556  -0.58438  -0.58052
 Alpha  occ. eigenvalues --   -0.55792  -0.55619  -0.55037  -0.54277  -0.53791
 Alpha  occ. eigenvalues --   -0.53538  -0.52635  -0.52572  -0.51848  -0.51466
 Alpha  occ. eigenvalues --   -0.51130  -0.50193  -0.49883  -0.49622  -0.48976
 Alpha  occ. eigenvalues --   -0.48515  -0.48166  -0.47663  -0.47584  -0.47366
 Alpha  occ. eigenvalues --   -0.47323  -0.47115  -0.45900  -0.45640  -0.45224
 Alpha  occ. eigenvalues --   -0.44892  -0.44564  -0.44009  -0.43970  -0.43748
 Alpha  occ. eigenvalues --   -0.43440  -0.43324  -0.43191  -0.42982  -0.42846
 Alpha  occ. eigenvalues --   -0.42835  -0.42780  -0.42650  -0.42431  -0.42372
 Alpha  occ. eigenvalues --   -0.42206  -0.42122  -0.41967  -0.41652  -0.41160
 Alpha  occ. eigenvalues --   -0.40612  -0.40483  -0.40151  -0.39871  -0.39777
 Alpha  occ. eigenvalues --   -0.39541  -0.39392  -0.39088  -0.38725  -0.38552
 Alpha  occ. eigenvalues --   -0.38291  -0.37878  -0.37504  -0.36882  -0.36723
 Alpha  occ. eigenvalues --   -0.36693  -0.36516  -0.36196  -0.34898  -0.34658
 Alpha  occ. eigenvalues --   -0.34489  -0.34187  -0.34141  -0.33217  -0.33003
 Alpha  occ. eigenvalues --   -0.32700  -0.32273  -0.31889  -0.31485  -0.31445
 Alpha  occ. eigenvalues --   -0.30135  -0.29189  -0.28686  -0.28072  -0.27762
 Alpha  occ. eigenvalues --   -0.27684  -0.27490  -0.27074  -0.26672  -0.24198
 Alpha  occ. eigenvalues --   -0.23602  -0.23347  -0.22739  -0.22204  -0.21902
 Alpha  occ. eigenvalues --   -0.19177  -0.18772  -0.18627  -0.17774  -0.17357
 Alpha virt. eigenvalues --   -0.06967  -0.06921  -0.02312  -0.01159  -0.00678
 Alpha virt. eigenvalues --   -0.00246   0.01182   0.01601   0.01852   0.02145
 Alpha virt. eigenvalues --    0.02346   0.02639   0.02968   0.04425   0.04668

 Mulliken charges:
               1
     1  C   -0.363328
     2  C    0.129650
     3  N   -0.220423
     4  C   -0.194076
     5  C    0.000325
     6  N    0.135685
     7  H    0.148004
     8  H    0.114232
     9  H    0.237075
    10  H    0.154554
    11  H    0.179009
    12  C   -0.386263
    13  C    0.161061
    14  N   -0.223579
    15  C   -0.197105
    16  C    0.009571
    17  N    0.103044
    18  H    0.124823
    19  H    0.147004
    20  H    0.243896
    21  H    0.145760
    22  H    0.166143
    23  C   -0.528866
    24  C   -0.613516
    25  C   -0.530510
    26  C   -0.605740
    27  C    0.254054
    28  C   -0.025198
    29  C   -0.003113
    30  C    0.267316
    31  C   -0.444739
    32  C   -0.313460
    33  C   -0.238543
    34  C    0.296142
    35  O   -0.336109
    36  O   -0.351344
    37  C    0.226118
    38  C   -0.095209
    39  C    0.040523
    40  C    0.272866
    41  C   -0.391600
    42  C   -0.241552
    43  C   -0.285568
    44  C    0.295681
    45  C   -0.150889
    46  C    0.136859
    47  C    0.103281
    48  C   -0.407670
    49  C   -0.254926
    50  C   -0.257734
    51  C    0.277522
    52  C   -0.049372
    53  C   -0.023775
    54  C    0.309757
    55  C   -0.450821
    56  C   -0.354454
    57  C   -0.238365
    58  C    0.332580
    59  O   -0.311968
    60  O   -0.360992
    61  N   -0.042664
    62  N   -0.018468
    63  N   -0.022018
    64  N   -0.034740
    65  Fe  -0.260896
    66  H    0.113629
    67  H    0.110743
    68  H    0.104010
    69  H    0.114869
    70  H    0.109123
    71  H    0.115923
    72  H    0.145689
    73  H    0.125622
    74  H    0.141280
    75  H    0.114388
    76  H    0.147230
    77  H    0.129468
    78  H    0.113963
    79  H    0.125856
    80  H    0.155606
    81  H    0.131577
    82  H    0.136085
    83  H    0.121222
    84  H    0.135529
    85  H    0.157094
    86  H    0.129023
    87  H    0.130441
    88  H    0.123181
    89  H    0.144976
    90  H    0.155323
    91  H    0.128348
    92  H    0.095731
    93  H    0.138496
    94  H    0.123024
    95  H    0.102940
    96  H    0.141279
    97  H    0.147564
    98  H    0.350813
    99  H    0.357009
 Sum of Mulliken charges =  -0.00000

 Dipole moment (field-independent basis, Debye):
    X=             -3.0090    Y=              3.4310    Z=              2.0824  Tot=              5.0162
 Quadrupole moment (field-independent basis, Debye-Ang):
   XX=           -361.6449   YY=           -338.1778   ZZ=           -267.6765
   XY=              5.7795   XZ=             19.7089   YZ=             16.7562

 Summary of Natural Population Analysis:

                                       Natural Population
                Natural  -----------------------------------------------
    Atom  No    Charge         Core      Valence    Rydberg      Total
 -----------------------------------------------------------------------
      C    1   -0.63672      1.99939     4.63101    0.00632     6.63672
      C    2    0.09206      1.99912     3.88950    0.01931     5.90794
      N    3   -0.49091      1.99936     5.47119    0.02037     7.49091
      C    4   -0.07296      1.99893     4.05598    0.01805     6.07296
      C    5    0.18593      1.99936     3.79549    0.01922     5.81407
      N    6   -0.32714      1.99939     5.27813    0.04962     7.32714
      H    7    0.22869      0.00000     0.77001    0.00129     0.77131
      H    8    0.21120      0.00000     0.78755    0.00125     0.78880
      H    9    0.41839      0.00000     0.57986    0.00175     0.58161
      H   10    0.23149      0.00000     0.76707    0.00143     0.76851
      H   11    0.22509      0.00000     0.77303    0.00189     0.77491
      C   12   -0.63509      1.99938     4.62956    0.00615     6.63509
      C   13    0.09425      1.99909     3.88749    0.01917     5.90575
      N   14   -0.49541      1.99936     5.47607    0.01999     7.49541
      C   15   -0.07128      1.99892     4.05331    0.01905     6.07128
      C   16    0.18799      1.99938     3.79348    0.01915     5.81201
      N   17   -0.33545      1.99941     5.28643    0.04961     7.33545
      H   18    0.21472      0.00000     0.78385    0.00143     0.78528
      H   19    0.23393      0.00000     0.76512    0.00095     0.76607
      H   20    0.42262      0.00000     0.57566    0.00172     0.57738
      H   21    0.23177      0.00000     0.76665    0.00157     0.76823
      H   22    0.22337      0.00000     0.77469    0.00193     0.77663
      C   23   -0.23267      1.99899     4.21747    0.01620     6.23267
      C   24   -0.24217      1.99896     4.22732    0.01590     6.24217
      C   25   -0.22916      1.99896     4.21403    0.01617     6.22916
      C   26   -0.26868      1.99898     4.25352    0.01617     6.26868
      C   27    0.15077      1.99903     3.82973    0.02046     5.84923
      C   28   -0.04041      1.99893     4.02320    0.01828     6.04041
      C   29   -0.03241      1.99893     4.01673    0.01675     6.03241
      C   30    0.13812      1.99903     3.84169    0.02115     5.86188
      C   31   -0.64391      1.99942     4.63631    0.00819     6.64391
      C   32   -0.43084      1.99936     4.41600    0.01548     6.43084
      C   33   -0.51208      1.99927     4.49580    0.01700     6.51208
      C   34    0.77480      1.99951     3.19001    0.03569     5.22520
      O   35   -0.57199      1.99978     6.54875    0.02346     8.57199
      O   36   -0.68762      1.99958     6.65840    0.02965     8.68762
      C   37    0.13493      1.99903     3.84548    0.02056     5.86507
      C   38   -0.00744      1.99891     3.99086    0.01767     6.00744
      C   39   -0.09708      1.99889     4.07665    0.02154     6.09708
      C   40    0.15671      1.99903     3.82354    0.02072     5.84329
      C   41   -0.64858      1.99941     4.64148    0.00769     6.64858
      C   42   -0.18560      1.99914     4.16723    0.01924     6.18560
      C   43   -0.41812      1.99912     4.40067    0.01833     6.41812
      C   44    0.14322      1.99903     3.83665    0.02111     5.85678
      C   45   -0.01153      1.99892     3.99550    0.01712     6.01153
      C   46   -0.10628      1.99885     4.08668    0.02075     6.10628
      C   47    0.13878      1.99904     3.84101    0.02117     5.86122
      C   48   -0.64858      1.99942     4.63610    0.01306     6.64858
      C   49   -0.19649      1.99920     4.17927    0.01801     6.19649
      C   50   -0.39982      1.99924     4.38441    0.01617     6.39982
      C   51    0.13759      1.99905     3.84181    0.02154     5.86241
      C   52   -0.03407      1.99895     4.01822    0.01691     6.03407
      C   53   -0.04723      1.99892     4.02995    0.01837     6.04723
      C   54    0.15313      1.99905     3.82708    0.02074     5.84687
      C   55   -0.64591      1.99942     4.63843    0.00807     6.64591
      C   56   -0.41746      1.99934     4.40456    0.01356     6.41746
      C   57   -0.50489      1.99930     4.48790    0.01768     6.50489
      C   58    0.76674      1.99948     3.19814    0.03564     5.23326
      O   59   -0.65055      1.99959     6.62068    0.03027     8.65055
      O   60   -0.57902      1.99978     6.55536    0.02387     8.57902
      N   61   -0.38541      1.99935     5.34200    0.04406     7.38541
      N   62   -0.36543      1.99935     5.32221    0.04386     7.36543
      N   63   -0.38438      1.99935     5.34091    0.04412     7.38438
      N   64   -0.37917      1.99933     5.33432    0.04552     7.37917
     Fe   65    0.16709     17.99093     7.79548    0.04651    25.83291
      H   66    0.22352      0.00000     0.77379    0.00269     0.77648
      H   67    0.22140      0.00000     0.77623    0.00238     0.77860
      H   68    0.22432      0.00000     0.77327    0.00241     0.77568
      H   69    0.20554      0.00000     0.79240    0.00207     0.79446
      H   70    0.20044      0.00000     0.79759    0.00197     0.79956
      H   71    0.21125      0.00000     0.78663    0.00212     0.78875
      H   72    0.22425      0.00000     0.77418    0.00156     0.77575
      H   73    0.21610      0.00000     0.78281    0.00109     0.78390
      H   74    0.22260      0.00000     0.77582    0.00158     0.77740
      H   75    0.21140      0.00000     0.78644    0.00217     0.78860
      H   76    0.24276      0.00000     0.75568    0.00156     0.75724
      H   77    0.24035      0.00000     0.75823    0.00142     0.75965
      H   78    0.21862      0.00000     0.77999    0.00139     0.78138
      H   79    0.21337      0.00000     0.78498    0.00164     0.78663
      H   80    0.23821      0.00000     0.76009    0.00170     0.76179
      H   81    0.22064      0.00000     0.77773    0.00163     0.77936
      H   82    0.20514      0.00000     0.79268    0.00218     0.79486
      H   83    0.19493      0.00000     0.80364    0.00143     0.80507
      H   84    0.21955      0.00000     0.77882    0.00163     0.78045
      H   85    0.23453      0.00000     0.76391    0.00156     0.76547
      H   86    0.21769      0.00000     0.78111    0.00120     0.78231
      H   87    0.19770      0.00000     0.80068    0.00161     0.80230
      H   88    0.19947      0.00000     0.79909    0.00144     0.80053
      H   89    0.21854      0.00000     0.77968    0.00177     0.78146
      H   90    0.22449      0.00000     0.77391    0.00160     0.77551
      H   91    0.21773      0.00000     0.78098    0.00129     0.78227
      H   92    0.20606      0.00000     0.79214    0.00179     0.79394
      H   93    0.22870      0.00000     0.76883    0.00247     0.77130
      H   94    0.23702      0.00000     0.76142    0.00156     0.76298
      H   95    0.19341      0.00000     0.80476    0.00183     0.80659
      H   96    0.21909      0.00000     0.77943    0.00148     0.78091
      H   97    0.23040      0.00000     0.76843    0.00117     0.76960
      H   98    0.50756      0.00000     0.49021    0.00222     0.49244
      H   99    0.51975      0.00000     0.47787    0.00239     0.48025
 =======================================================================
   * Total *   -0.00000    125.94823   282.75616    1.29560   410.00000

 Normal termination of Gaussian 16 at Sat Feb  4 20:40:50 2023.
