 Gaussian 16, Revision A.03,
 Gaussian 16:  ES64L-G16RevA.03 25-Dec-2016

 ----------------------------------------------------------------------
 # PBE1PBE/def2TZVP empiricaldispersion=GD3BJ scf=maxcycle=999 geom=che
 ck pop=nbo
 ----------------------------------------------------------------------

 ----------
 1jbq_III_D
 ----------
 Structure from the checkpoint file:  "1jbq_III_D.chk"
 Charge =  1 Multiplicity = 2

                         Standard orientation:
 ---------------------------------------------------------------------
 Center     Atomic      Atomic             Coordinates (Angstroms)
 Number     Number       Type             X           Y           Z
 ---------------------------------------------------------------------
      1          6           0       -1.078762   -0.496773   -3.134535
      2         16           0        0.244926    0.204440   -2.173000
      3          6           0        3.242665   -0.056858    4.923379
      4          6           0        2.201657   -0.157349    3.856340
      5          7           0        0.910195   -0.560008    4.115252
      6          6           0        2.256656    0.105124    2.530199
      7          6           0        0.214648   -0.541385    2.993555
      8          7           0        1.007397   -0.142348    2.017380
      9          6           0       -2.382947   -0.284083    0.289028
     10          6           0        0.562368    3.434526   -0.130963
     11          6           0        4.316898    0.484535   -0.651212
     12          6           0        1.337982   -3.295291   -0.340100
     13          6           0       -1.924517    0.996042    0.246686
     14          6           0       -2.735492    2.186845    0.413283
     15          6           0       -1.916658    3.241418    0.283654
     16          6           0       -0.563806    2.719354    0.045625
     17          6           0       -2.283246    4.746817    0.367098
     18          6           0       -4.248916    2.159846    0.692638
     19          6           0       -5.149224    2.555658   -0.452600
     20          6           0       -6.593207    2.680625    0.013928
     21          8           0       -7.165264    1.561477    0.308457
     22          8           0       -7.108024    3.810139    0.094553
     23          6           0        1.823312    2.978921   -0.325337
     24          6           0        2.986585    3.837512   -0.495607
     25          6           0        4.069760    3.004154   -0.634578
     26          6           0        3.565599    1.651061   -0.561103
     27          6           0        2.935741    5.380519   -0.496675
     28          6           0        5.576025    3.343730   -0.830149
     29          6           0        6.013694    4.268773   -1.980950
     30          6           0        3.833952   -0.810735   -0.603710
     31          6           0        4.683771   -2.008219   -0.733084
     32          6           0        3.848917   -3.082900   -0.655463
     33          6           0        2.502234   -2.552030   -0.470598
     34          6           0        6.228799   -1.932376   -0.927847
     35          6           0        4.124650   -4.618421   -0.739396
     36          6           0        5.444631   -5.194640   -0.194216
     37          6           0        0.050017   -2.827717   -0.152563
     38          6           0       -1.158333   -3.637419   -0.018440
     39          6           0       -2.204217   -2.782745    0.161986
     40          6           0       -1.649640   -1.443040    0.137008
     41          6           0       -1.201846   -5.176604   -0.080644
     42          6           0       -3.696479   -3.139567    0.351023
     43          6           0       -4.548623   -2.593401   -0.858992
     44          6           0       -6.036265   -2.857935   -0.764566
     45          8           0       -6.568767   -3.075803    0.340470
     46          8           0       -6.649401   -2.806855   -1.857982
     47          7           0       -0.613013    1.354768    0.043787
     48          7           0        2.199669    1.652064   -0.379240
     49          7           0        2.518656   -1.167315   -0.439098
     50          7           0       -0.272516   -1.467185   -0.068155
     51         26           0        0.960786    0.073685   -0.217394
     52          1           0        2.966058   -0.676108    5.750977
     53          1           0        4.184926   -0.381695    4.534117
     54          1           0        3.322524    0.959195    5.249199
     55          1           0        0.555333   -0.824789    5.011892
     56          1           0       -0.817419   -0.805254    2.893007
     57          1           0        3.112722    0.442159    1.983887
     58          1           0       -2.007043   -0.352048   -2.622432
     59          1           0       -1.119477   -0.015826   -4.089486
     60          1           0       -0.905467   -1.543961   -3.269688
     61          1           0        0.008007    0.013029   -0.898899
     62          1           0       -1.771739   -5.550920    0.743983
     63          1           0       -1.658372   -5.483710   -0.998343
     64          1           0       -0.205640   -5.563883   -0.030764
     65          1           0       -4.052283   -2.701688    1.260180
     66          1           0       -3.801515   -4.202982    0.405938
     67          1           0       -4.398643   -1.536073   -0.925800
     68          1           0       -4.183323   -3.044042   -1.758091
     69          1           0       -6.055210   -2.986804    1.146658
     70          1           0       -3.432156   -0.406219    0.459739
     71          1           0       -4.512355    1.167188    0.992852
     72          1           0       -4.446046    2.819441    1.511768
     73          1           0       -4.824194    3.495597   -0.847277
     74          1           0       -5.090266    1.812241   -1.219903
     75          1           0       -7.308330    1.322723    1.227222
     76          1           0       -1.938595    5.146780    1.297767
     77          1           0       -1.818631    5.272365   -0.440883
     78          1           0       -3.345308    4.859421    0.301951
     79          1           0        0.447271    4.498212   -0.115945
     80          1           0        3.366679    5.752206    0.409438
     81          1           0        3.487167    5.754970   -1.333703
     82          1           0        1.918139    5.703800   -0.566500
     83          1           0        6.307461    2.934459   -0.165019
     84          1           0        6.426617    5.232089   -1.765507
     85          1           0        5.904867    3.948180   -2.995976
     86          1           0        5.374060    0.600392   -0.769050
     87          1           0        6.713925   -2.482504   -0.148802
     88          1           0        6.489712   -2.352352   -1.876765
     89          1           0        6.543103   -0.910220   -0.891640
     90          1           0        3.396362   -5.269695   -1.175674
     91          1           0        5.564287   -5.356018    0.856754
     92          1           0        6.242106   -5.433621   -0.866393
     93          1           0        1.450072   -4.358203   -0.390637
 ---------------------------------------------------------------------

 SCF Done:  E(UPBE1PBE) =  -3800.27665412     A.U. after  125 cycles

 Alpha virt. eigenvalues --    0.71877   0.71977   0.72310   0.72537   0.72772
 Alpha virt. eigenvalues --    0.73163   0.73210   0.73737   0.74448   0.74569
 Alpha virt. eigenvalues --    0.74785   0.75174   0.75285   0.75686   0.76149

  Beta  occ. eigenvalues -- -256.53311 -89.13567 -30.29850 -26.12826 -26.12444
  Beta  occ. eigenvalues --  -26.12227 -19.35563 -19.32759 -19.26470 -19.24733
  Beta  occ. eigenvalues --  -14.55562 -14.51814 -14.51097 -14.50971 -14.50611
  Beta  occ. eigenvalues --  -14.50274 -10.43277 -10.43050 -10.39430 -10.37520
  Beta  occ. eigenvalues --  -10.37509 -10.36995 -10.36919 -10.36894 -10.36597
  Beta  occ. eigenvalues --  -10.36465 -10.36428 -10.36303 -10.35591 -10.35582
  Beta  occ. eigenvalues --  -10.34973 -10.34685 -10.34628 -10.34610 -10.34519
  Beta  occ. eigenvalues --  -10.34487 -10.34165 -10.34149 -10.34027 -10.33825
  Beta  occ. eigenvalues --  -10.33721 -10.33488 -10.33468 -10.33291 -10.33141
  Beta  occ. eigenvalues --  -10.32950 -10.32909 -10.32537 -10.32514 -10.32018
  Beta  occ. eigenvalues --  -10.31649 -10.31043 -10.30946 -10.30742 -10.30363
  Beta  occ. eigenvalues --   -8.11918  -6.05579  -6.05129  -6.04627  -3.63423
  Beta  occ. eigenvalues --   -2.40980  -2.37942  -2.37486  -1.25606  -1.22260
  Beta  occ. eigenvalues --   -1.17708  -1.10826  -1.10795  -1.09952  -1.09425
  Beta  occ. eigenvalues --   -1.09078  -1.08104  -1.02030  -0.95878  -0.95554
  Beta  occ. eigenvalues --   -0.94191  -0.93377  -0.92840  -0.92531  -0.91872
  Beta  occ. eigenvalues --   -0.91787  -0.91396  -0.89420  -0.89060  -0.87500
  Beta  occ. eigenvalues --   -0.86083  -0.84118  -0.83586  -0.83273  -0.82828
  Beta  occ. eigenvalues --   -0.81890  -0.81513  -0.80826  -0.80177  -0.79024
  Beta  occ. eigenvalues --   -0.78338  -0.77480  -0.77090  -0.76332  -0.75670
  Beta  occ. eigenvalues --   -0.73424  -0.73198  -0.71748  -0.71221  -0.71000
  Beta  occ. eigenvalues --   -0.70141  -0.67615  -0.67366  -0.66359  -0.65863
  Beta  occ. eigenvalues --   -0.65317  -0.63665  -0.63413  -0.63236  -0.62646
  Beta  occ. eigenvalues --   -0.62348  -0.61208  -0.60481  -0.60063  -0.59578
  Beta  occ. eigenvalues --   -0.59387  -0.58817  -0.58663  -0.57693  -0.57095
  Beta  occ. eigenvalues --   -0.56859  -0.56222  -0.56075  -0.55879  -0.55540
  Beta  occ. eigenvalues --   -0.55297  -0.55247  -0.55087  -0.54886  -0.54731
  Beta  occ. eigenvalues --   -0.54438  -0.54085  -0.53879  -0.53677  -0.53550
  Beta  occ. eigenvalues --   -0.53456  -0.52954  -0.52797  -0.52701  -0.52311
  Beta  occ. eigenvalues --   -0.52078  -0.51812  -0.51728  -0.51534  -0.51356
  Beta  occ. eigenvalues --   -0.51172  -0.50738  -0.50551  -0.50438  -0.50111
  Beta  occ. eigenvalues --   -0.49792  -0.49628  -0.49491  -0.49301  -0.49037
  Beta  occ. eigenvalues --   -0.48821  -0.48596  -0.48470  -0.47948  -0.47469
  Beta  occ. eigenvalues --   -0.47020  -0.46731  -0.46476  -0.46220  -0.45762
  Beta  occ. eigenvalues --   -0.45454  -0.44995  -0.44855  -0.44626  -0.43927
  Beta  occ. eigenvalues --   -0.42911  -0.42766  -0.41427  -0.41257  -0.40071
  Beta  occ. eigenvalues --   -0.39942  -0.39530  -0.39016  -0.37309  -0.36617
  Beta  occ. eigenvalues --   -0.36254  -0.35562  -0.35230  -0.35091  -0.34266
  Beta  occ. eigenvalues --   -0.33629  -0.31705  -0.30838  -0.28939  -0.27630
  Beta virt. eigenvalues --   -0.22665  -0.19997  -0.19320  -0.18500  -0.17304
  Beta virt. eigenvalues --   -0.16427  -0.14559  -0.11308  -0.09070  -0.08804
  Beta virt. eigenvalues --   -0.08635  -0.07358  -0.06781  -0.06272  -0.06008

 Mulliken charges and spin densities:
               1          2
     1  C   -0.345631  -0.012720
     2  S   -0.095918   0.202934
     3  C   -0.350158   0.000217
     4  C    0.097698   0.001039
     5  N   -0.202736  -0.000252
     6  C   -0.156369   0.001350
     7  C    0.047408  -0.000395
     8  N   -0.120546  -0.005066
     9  C   -0.549461   0.003663
    10  C   -0.450122   0.008313
    11  C   -0.475300  -0.001539
    12  C   -0.470935   0.006103
    13  C    0.376106  -0.001530
    14  C    0.009969   0.003380
    15  C   -0.077794  -0.004328
    16  C    0.246927   0.000959
    17  C   -0.387705  -0.000167
    18  C   -0.479657  -0.000082
    19  C   -0.136741   0.000067
    20  C    0.310973  -0.000002
    21  O   -0.375481   0.000001
    22  O   -0.304027   0.000005
    23  C    0.365988  -0.003773
    24  C   -0.078698  -0.001060
    25  C    0.020053   0.000445
    26  C    0.210428   0.002571
    27  C   -0.366380  -0.000308
    28  C   -0.295735   0.004261
    29  C   -0.315249  -0.001938
    30  C    0.335352   0.000360
    31  C   -0.072768   0.010504
    32  C   -0.014589   0.000173
    33  C    0.276567  -0.008490
    34  C   -0.354013  -0.000419
    35  C   -0.241353   0.003487
    36  C   -0.327396  -0.001617
    37  C    0.329384  -0.001442
    38  C   -0.098923  -0.003952
    39  C    0.077054   0.003050
    40  C    0.151565  -0.002132
    41  C   -0.404033  -0.000139
    42  C   -0.412430  -0.000196
    43  C   -0.216596   0.000093
    44  C    0.283723  -0.000011
    45  O   -0.257725  -0.000002
    46  O   -0.351939   0.000047
    47  N    0.001435  -0.015705
    48  N    0.039570  -0.012473
    49  N    0.087590  -0.009304
    50  N    0.048862  -0.026787
    51  Fe  -0.239981   0.875506
    52  H    0.133427   0.000028
    53  H    0.155060   0.000016
    54  H    0.159847   0.000018
    55  H    0.247069  -0.000042
    56  H    0.167885   0.000046
    57  H    0.160922  -0.000233
    58  H    0.161714   0.011363
    59  H    0.194919   0.000745
    60  H    0.161841   0.002368
    61  H    0.155044  -0.026478
    62  H    0.150226  -0.000108
    63  H    0.163632  -0.000185
    64  H    0.139469  -0.000023
    65  H    0.120758   0.000070
    66  H    0.163481  -0.000063
    67  H    0.126860  -0.000026
    68  H    0.149235  -0.000013
    69  H    0.335409  -0.000001
    70  H    0.113150  -0.000518
    71  H    0.103744  -0.000004
    72  H    0.152673  -0.000033
    73  H    0.133790  -0.000003
    74  H    0.127806  -0.000003
    75  H    0.352401   0.000000
    76  H    0.158192  -0.000093
    77  H    0.147211  -0.000044
    78  H    0.156796  -0.000106
    79  H    0.115867  -0.000345
    80  H    0.155069   0.000010
    81  H    0.159021  -0.000059
    82  H    0.127996   0.000019
    83  H    0.162530   0.000014
    84  H    0.168836   0.000093
    85  H    0.169355   0.000203
    86  H    0.109417   0.000010
    87  H    0.157821   0.000449
    88  H    0.154768   0.000301
    89  H    0.131357   0.000019
    90  H    0.164054  -0.000011
    91  H    0.169463   0.000175
    92  H    0.169692   0.000109
    93  H    0.101930  -0.000365
 Sum of Mulliken charges =   1.00000   1.00000

 Dipole moment (field-independent basis, Debye):
    X=              8.4124    Y=             -2.7464    Z=              8.5701  Tot=             12.3190
 Quadrupole moment (field-independent basis, Debye-Ang):
   XX=           -289.9056   YY=           -259.9822   ZZ=           -259.7405
   XY=             12.3424   XZ=            -27.7213   YZ=            -12.7035

 Summary of Natural Population Analysis:

                                       Natural Population
                Natural  -----------------------------------------------
    Atom  No    Charge         Core      Valence    Rydberg      Total
 -----------------------------------------------------------------------
      C    1   -0.37262      0.99964     2.36538    0.00760     3.37262
      S    2    0.31410      4.99860     2.66287    0.02443     7.68590
      C    3   -0.32113      0.99969     2.31823    0.00321     3.32113
      C    4    0.06111      0.99955     1.93015    0.00919     2.93889
      N    5   -0.23550      0.99968     2.72565    0.01018     3.73550
      C    6   -0.04087      0.99944     2.03257    0.00887     3.04087
      C    7    0.09454      0.99968     1.89596    0.00983     2.90546
      N    8   -0.18575      0.99970     2.66456    0.02149     3.68575
      C    9   -0.12804      0.99945     2.11943    0.00916     3.12804
      C   10   -0.10461      0.99943     2.09711    0.00806     3.10461
      C   11   -0.11060      0.99949     2.10343    0.00768     3.11060
      C   12   -0.10890      0.99949     2.10164    0.00777     3.10890
      C   13    0.07207      0.99949     1.91782    0.01062     2.92793
      C   14   -0.01252      0.99938     2.00323    0.00992     3.01252
      C   15    0.00653      0.99939     1.98619    0.00789     2.99347
      C   16    0.08199      0.99950     1.90804    0.01048     2.91801
      C   17   -0.32052      0.99969     2.31725    0.00357     3.32052
      C   18   -0.20936      0.99965     2.20301    0.00670     3.20936
      C   19   -0.25049      0.99962     2.24208    0.00879     3.25049
      C   20    0.38574      0.99975     1.59698    0.01753     2.61426
      O   21   -0.34959      0.99982     3.33600    0.01377     4.34959
      O   22   -0.26635      0.99989     3.25437    0.01210     4.26635
      C   23    0.07857      0.99949     1.91158    0.01036     2.92143
      C   24    0.01613      0.99944     1.97625    0.00818     2.98387
      C   25   -0.04257      0.99938     2.03322    0.00997     3.04257
      C   26    0.08439      0.99952     1.90621    0.00987     2.91561
      C   27   -0.31789      0.99969     2.31440    0.00380     3.31789
      C   28   -0.10222      0.99972     2.09502    0.00749     3.10222
      C   29   -0.17485      0.99975     2.16856    0.00654     3.17485
      C   30    0.07565      0.99952     1.91483    0.01000     2.92435
      C   31    0.02035      0.99941     1.97169    0.00854     2.97965
      C   32   -0.04588      0.99936     2.03670    0.00982     3.04588
      C   33    0.08937      0.99953     1.90127    0.00983     2.91063
      C   34   -0.31712      0.99968     2.31357    0.00387     3.31712
      C   35   -0.09369      0.99972     2.08629    0.00768     3.09369
      C   36   -0.17584      0.99976     2.16858    0.00750     3.17584
      C   37    0.07988      0.99952     1.91018    0.01043     2.92012
      C   38   -0.00102      0.99943     1.99367    0.00792     3.00102
      C   39   -0.01529      0.99941     2.00590    0.00998     3.01529
      C   40    0.07025      0.99950     1.91992    0.01033     2.92975
      C   41   -0.31840      0.99969     2.31505    0.00366     3.31840
      C   42   -0.21975      0.99967     2.21305    0.00703     3.21975
      C   43   -0.25313      0.99963     2.24486    0.00864     3.25313
      C   44    0.37569      0.99973     1.60741    0.01717     2.62431
      O   45   -0.30719      0.99980     3.29175    0.01564     4.30719
      O   46   -0.28393      0.99990     3.27206    0.01197     4.28393
      N   47   -0.18358      0.99962     2.66187    0.02210     3.68358
      N   48   -0.18998      0.99967     2.66777    0.02254     3.68998
      N   49   -0.16728      0.99966     2.64606    0.02156     3.66728
      N   50   -0.20087      0.99963     2.67848    0.02276     3.70087
     Fe   51    0.39129      8.98445     3.59995    0.02431    12.60871
      H   52    0.11195      0.00000     0.38745    0.00060     0.38805
      H   53    0.12024      0.00000     0.37926    0.00050     0.37976
      H   54    0.11817      0.00000     0.38121    0.00062     0.38183
      H   55    0.21253      0.00000     0.28666    0.00080     0.28747
      H   56    0.11105      0.00000     0.38814    0.00081     0.38895
      H   57    0.11763      0.00000     0.38159    0.00077     0.38237
      H   58    0.12591      0.00000     0.37341    0.00068     0.37409
      H   59    0.13401      0.00000     0.36565    0.00034     0.36599
      H   60    0.11831      0.00000     0.38103    0.00066     0.38169
      H   61    0.10204      0.00000     0.38606    0.01190     0.39796
      H   62    0.11481      0.00000     0.38451    0.00068     0.38519
      H   63    0.11728      0.00000     0.38204    0.00067     0.38272
      H   64    0.11205      0.00000     0.38739    0.00056     0.38795
      H   65    0.09826      0.00000     0.40072    0.00102     0.40174
      H   66    0.11696      0.00000     0.38236    0.00068     0.38304
      H   67    0.11379      0.00000     0.38553    0.00068     0.38621
      H   68    0.12416      0.00000     0.37515    0.00069     0.37584
      H   69    0.24895      0.00000     0.25011    0.00094     0.25105
      H   70    0.11138      0.00000     0.38731    0.00131     0.38862
      H   71    0.10185      0.00000     0.39695    0.00120     0.39815
      H   72    0.11468      0.00000     0.38450    0.00082     0.38532
      H   73    0.11604      0.00000     0.38326    0.00070     0.38396
      H   74    0.11250      0.00000     0.38674    0.00075     0.38750
      H   75    0.25805      0.00000     0.24078    0.00118     0.24195
      H   76    0.11578      0.00000     0.38353    0.00069     0.38422
      H   77    0.11454      0.00000     0.38483    0.00063     0.38546
      H   78    0.11653      0.00000     0.38275    0.00072     0.38347
      H   79    0.11474      0.00000     0.38389    0.00137     0.38526
      H   80    0.11767      0.00000     0.38159    0.00073     0.38233
      H   81    0.12096      0.00000     0.37836    0.00068     0.37904
      H   82    0.10768      0.00000     0.39176    0.00056     0.39232
      H   83    0.10602      0.00000     0.39288    0.00110     0.39398
      H   84    0.10031      0.00000     0.39880    0.00088     0.39969
      H   85    0.10078      0.00000     0.39822    0.00100     0.39922
      H   86    0.11574      0.00000     0.38285    0.00141     0.38426
      H   87    0.11905      0.00000     0.38029    0.00066     0.38095
      H   88    0.11972      0.00000     0.37951    0.00077     0.38028
      H   89    0.10809      0.00000     0.39136    0.00055     0.39191
      H   90    0.10558      0.00000     0.39329    0.00114     0.39442
      H   91    0.10003      0.00000     0.39893    0.00103     0.39997
      H   92    0.10036      0.00000     0.39869    0.00095     0.39964
      H   93    0.11351      0.00000     0.38515    0.00134     0.38649
 =======================================================================
   * Total *    1.00000     62.96328   131.43259    0.60412   195.00000

 Normal termination of Gaussian 16 at Sat Sep 10 16:42:04 2022.
