 Gaussian 16, Revision A.03,

 ---------------------------------------------------------------------
 # polar def2tzvp empiricaldispersion=gd3bj int=grid=ultrafine pbe1pbe
 ---------------------------------------------------------------------

 ---------
 1jbq_II_S
 ---------
 Symbolic Z-matrix:
 Charge =  0 Multiplicity = 1

 SCF Done:  E(RPBE1PBE) =  -3800.48746409     A.U. after   28 cycles

  Exact polarizability: 908.559 -27.336 833.554 -39.581 -25.983 410.859
 Approx polarizability:1562.023 -63.2281564.628 -97.664 -54.820 686.919

 Normal termination of Gaussian 16 at Fri Sep  2 20:38:07 2022.
 Gaussian 16:  ES64L-G16RevA.03 25-Dec-2016

 ----------------------------------------------------------------------
 # PBE1PBE/def2TZVP empiricaldispersion=GD3BJ int=(grid=ultrafine) geom
 =check guess=read pop=nbo scf=qc
 ----------------------------------------------------------------------

 -------------
 1jbq_II_S_nbo
 -------------
 Structure from the checkpoint file:  "1jbq_II_S.chk"
 Charge =  0 Multiplicity = 1

                         Standard orientation:
 ---------------------------------------------------------------------
 Center     Atomic      Atomic             Coordinates (Angstroms)
 Number     Number       Type             X           Y           Z
 ---------------------------------------------------------------------
      1          6           0       -1.078762   -0.496773   -3.134535
      2         16           0        0.244926    0.204440   -2.173000
      3          6           0        3.242665   -0.056858    4.923379
      4          6           0        2.201657   -0.157349    3.856340
      5          7           0        0.910195   -0.560008    4.115252
      6          6           0        2.256656    0.105124    2.530199
      7          6           0        0.214648   -0.541385    2.993555
      8          7           0        1.007397   -0.142348    2.017380
      9          6           0       -2.382947   -0.284083    0.289028
     10          6           0        0.562368    3.434526   -0.130963
     11          6           0        4.316898    0.484535   -0.651212
     12          6           0        1.337982   -3.295291   -0.340100
     13          6           0       -1.924517    0.996042    0.246686
     14          6           0       -2.735492    2.186845    0.413283
     15          6           0       -1.916658    3.241418    0.283654
     16          6           0       -0.563806    2.719354    0.045625
     17          6           0       -2.283246    4.746817    0.367098
     18          6           0       -4.248916    2.159846    0.692638
     19          6           0       -5.149224    2.555658   -0.452600
     20          6           0       -6.593207    2.680625    0.013928
     21          8           0       -7.165264    1.561477    0.308457
     22          8           0       -7.108024    3.810139    0.094553
     23          6           0        1.823312    2.978921   -0.325337
     24          6           0        2.986585    3.837512   -0.495607
     25          6           0        4.069760    3.004154   -0.634578
     26          6           0        3.565599    1.651061   -0.561103
     27          6           0        2.935741    5.380519   -0.496675
     28          6           0        5.576025    3.343730   -0.830149
     29          6           0        6.013694    4.268773   -1.980950
     30          6           0        3.833952   -0.810735   -0.603710
     31          6           0        4.683771   -2.008219   -0.733084
     32          6           0        3.848917   -3.082900   -0.655463
     33          6           0        2.502234   -2.552030   -0.470598
     34          6           0        6.228799   -1.932376   -0.927847
     35          6           0        4.124650   -4.618421   -0.739396
     36          6           0        5.444631   -5.194640   -0.194216
     37          6           0        0.050017   -2.827717   -0.152563
     38          6           0       -1.158333   -3.637419   -0.018440
     39          6           0       -2.204217   -2.782745    0.161986
     40          6           0       -1.649640   -1.443040    0.137008
     41          6           0       -1.201846   -5.176604   -0.080644
     42          6           0       -3.696479   -3.139567    0.351023
     43          6           0       -4.548623   -2.593401   -0.858992
     44          6           0       -6.036265   -2.857935   -0.764566
     45          8           0       -6.568767   -3.075803    0.340470
     46          8           0       -6.649401   -2.806855   -1.857982
     47          7           0       -0.613013    1.354768    0.043787
     48          7           0        2.199669    1.652064   -0.379240
     49          7           0        2.518656   -1.167315   -0.439098
     50          7           0       -0.272516   -1.467185   -0.068155
     51         26           0        0.960786    0.073685   -0.217394
     52          1           0        2.966058   -0.676108    5.750977
     53          1           0        4.184926   -0.381695    4.534117
     54          1           0        3.322524    0.959195    5.249199
     55          1           0        0.555333   -0.824789    5.011892
     56          1           0       -0.817419   -0.805254    2.893007
     57          1           0        3.112722    0.442159    1.983887
     58          1           0       -2.007043   -0.352048   -2.622432
     59          1           0       -1.119477   -0.015826   -4.089486
     60          1           0       -0.905467   -1.543961   -3.269688
     61          1           0        0.008007    0.013029   -0.898899
     62          1           0       -1.771739   -5.550920    0.743983
     63          1           0       -1.658372   -5.483710   -0.998343
     64          1           0       -0.205640   -5.563883   -0.030764
     65          1           0       -4.052283   -2.701688    1.260180
     66          1           0       -3.801515   -4.202982    0.405938
     67          1           0       -4.398643   -1.536073   -0.925800
     68          1           0       -4.183323   -3.044042   -1.758091
     69          1           0       -6.055210   -2.986804    1.146658
     70          1           0       -3.432156   -0.406219    0.459739
     71          1           0       -4.512355    1.167188    0.992852
     72          1           0       -4.446046    2.819441    1.511768
     73          1           0       -4.824194    3.495597   -0.847277
     74          1           0       -5.090266    1.812241   -1.219903
     75          1           0       -7.308330    1.322723    1.227222
     76          1           0       -1.938595    5.146780    1.297767
     77          1           0       -1.818631    5.272365   -0.440883
     78          1           0       -3.345308    4.859421    0.301951
     79          1           0        0.447271    4.498212   -0.115945
     80          1           0        3.366679    5.752206    0.409438
     81          1           0        3.487167    5.754970   -1.333703
     82          1           0        1.918139    5.703800   -0.566500
     83          1           0        6.307461    2.934459   -0.165019
     84          1           0        6.426617    5.232089   -1.765507
     85          1           0        5.904867    3.948180   -2.995976
     86          1           0        5.374060    0.600392   -0.769050
     87          1           0        6.713925   -2.482504   -0.148802
     88          1           0        6.489712   -2.352352   -1.876765
     89          1           0        6.543103   -0.910220   -0.891640
     90          1           0        3.396362   -5.269695   -1.175674
     91          1           0        5.564287   -5.356018    0.856754
     92          1           0        6.242106   -5.433621   -0.866393
     93          1           0        1.450072   -4.358203   -0.390637
 ---------------------------------------------------------------------

 SCF Done:  E(RPBE1PBE) =  -3800.48746409     a.u. after    1 cycles

 The electronic state is 1-A.
 Alpha  occ. eigenvalues -- -256.34318 -88.96299 -30.11217 -25.94093 -25.93875
 Alpha  occ. eigenvalues --  -25.93348 -19.28508 -19.26001 -19.19635 -19.17578
 Alpha  occ. eigenvalues --  -14.45914 -14.39551 -14.39377 -14.38829 -14.38674
 Alpha  occ. eigenvalues --  -14.38443 -10.36305 -10.35738 -10.29183 -10.26956
 Alpha  occ. eigenvalues --  -10.26487 -10.26391 -10.26387 -10.26352 -10.25900
 Alpha  occ. eigenvalues --  -10.25868 -10.25810 -10.25753 -10.25507 -10.25355
 Alpha  occ. eigenvalues --  -10.25287 -10.24561 -10.24407 -10.24330 -10.24316
 Alpha  occ. eigenvalues --  -10.24255 -10.24216 -10.24215 -10.24159 -10.23942
 Alpha  occ. eigenvalues --  -10.23819 -10.23794 -10.23653 -10.23332 -10.23201
 Alpha  occ. eigenvalues --  -10.23193 -10.22975 -10.22815 -10.22790 -10.22645
 Alpha  occ. eigenvalues --  -10.22408 -10.22218 -10.21912 -10.21707 -10.21600
 Alpha  occ. eigenvalues --   -7.94858  -5.88517  -5.88107  -5.87636  -3.46728
 Alpha  occ. eigenvalues --   -2.24443  -2.21858  -2.21069  -1.18518  -1.15480
 Alpha  occ. eigenvalues --   -1.07726  -1.04042  -1.02831  -0.99224  -0.98012
 Alpha  occ. eigenvalues --   -0.97769  -0.96814  -0.91783  -0.85370  -0.84756
 Alpha  occ. eigenvalues --   -0.84593  -0.82556  -0.82328  -0.81886  -0.81709
 Alpha  occ. eigenvalues --   -0.81291  -0.80288  -0.80077  -0.79054  -0.76802
 Alpha  occ. eigenvalues --   -0.76340  -0.74786  -0.74114  -0.73770  -0.73628
 Alpha  occ. eigenvalues --   -0.71910  -0.71321  -0.71179  -0.70401  -0.70310
 Alpha  occ. eigenvalues --   -0.68917  -0.67564  -0.66749  -0.66580  -0.65770
 Alpha  occ. eigenvalues --   -0.65500  -0.63396  -0.62164  -0.61709  -0.60489
 Alpha  occ. eigenvalues --   -0.59065  -0.57734  -0.57451  -0.56319  -0.55504
 Alpha  occ. eigenvalues --   -0.55117  -0.54426  -0.53621  -0.53160  -0.52746
 Alpha  occ. eigenvalues --   -0.52272  -0.51839  -0.50583  -0.49894  -0.49710
 Alpha  occ. eigenvalues --   -0.49420  -0.49305  -0.49119  -0.48958  -0.48153
 Alpha  occ. eigenvalues --   -0.47759  -0.47265  -0.46957  -0.46230  -0.45915
 Alpha  occ. eigenvalues --   -0.45560  -0.45246  -0.45115  -0.44893  -0.44695
 Alpha  occ. eigenvalues --   -0.44435  -0.44252  -0.44176  -0.44134  -0.43826
 Alpha  occ. eigenvalues --   -0.43638  -0.43350  -0.43143  -0.43060  -0.42776
 Alpha  occ. eigenvalues --   -0.42648  -0.42140  -0.41973  -0.41755  -0.41719
 Alpha  occ. eigenvalues --   -0.41307  -0.41202  -0.40941  -0.40854  -0.40519
 Alpha  occ. eigenvalues --   -0.40245  -0.39987  -0.39835  -0.39427  -0.39359
 Alpha  occ. eigenvalues --   -0.39101  -0.38872  -0.38673  -0.38010  -0.37545
 Alpha  occ. eigenvalues --   -0.37148  -0.36934  -0.36618  -0.36166  -0.35923
 Alpha  occ. eigenvalues --   -0.35445  -0.34524  -0.34225  -0.34082  -0.33528
 Alpha  occ. eigenvalues --   -0.33039  -0.32457  -0.32114  -0.30717  -0.29542
 Alpha  occ. eigenvalues --   -0.29393  -0.28806  -0.28678  -0.27589  -0.26550
 Alpha  occ. eigenvalues --   -0.25835  -0.25390  -0.25216  -0.23543  -0.23031
 Alpha  occ. eigenvalues --   -0.21514  -0.20556  -0.20061  -0.19571  -0.18184
 Alpha  occ. eigenvalues --   -0.18091
 Alpha virt. eigenvalues --   -0.10270  -0.09287  -0.07178  -0.06866  -0.02656
 Alpha virt. eigenvalues --   -0.02337  -0.01341  -0.00779   0.01029   0.01129
 Alpha virt. eigenvalues --    0.01569   0.01785   0.02107   0.03480   0.03623

 Mulliken charges:
               1
     1  C   -0.343900
     2  S   -0.294167
     3  C   -0.362112
     4  C    0.108801
     5  N   -0.216091
     6  C   -0.155366
     7  C    0.039771
     8  N   -0.127735
     9  C   -0.545677
    10  C   -0.471372
    11  C   -0.487862
    12  C   -0.483544
    13  C    0.363458
    14  C    0.003451
    15  C   -0.071788
    16  C    0.244334
    17  C   -0.404151
    18  C   -0.490299
    19  C   -0.127464
    20  C    0.308043
    21  O   -0.376505
    22  O   -0.320511
    23  C    0.369150
    24  C   -0.071709
    25  C    0.024376
    26  C    0.207620
    27  C   -0.379368
    28  C   -0.294229
    29  C   -0.351028
    30  C    0.328663
    31  C   -0.071453
    32  C   -0.012981
    33  C    0.276258
    34  C   -0.358707
    35  C   -0.237316
    36  C   -0.387100
    37  C    0.333709
    38  C   -0.093866
    39  C    0.068733
    40  C    0.153566
    41  C   -0.420256
    42  C   -0.418291
    43  C   -0.210971
    44  C    0.281924
    45  O   -0.268452
    46  O   -0.366080
    47  N    0.002782
    48  N    0.023298
    49  N    0.081936
    50  N    0.031729
    51  Fe  -0.195302
    52  H    0.119431
    53  H    0.151398
    54  H    0.147692
    55  H    0.229068
    56  H    0.153559
    57  H    0.154869
    58  H    0.130258
    59  H    0.160151
    60  H    0.133810
    61  H    0.144186
    62  H    0.134140
    63  H    0.151029
    64  H    0.134203
    65  H    0.108111
    66  H    0.151003
    67  H    0.134495
    68  H    0.145097
    69  H    0.335626
    70  H    0.089369
    71  H    0.100906
    72  H    0.138235
    73  H    0.126915
    74  H    0.130965
    75  H    0.347357
    76  H    0.143759
    77  H    0.141327
    78  H    0.142975
    79  H    0.094097
    80  H    0.138418
    81  H    0.148362
    82  H    0.122170
    83  H    0.146108
    84  H    0.147810
    85  H    0.157158
    86  H    0.090493
    87  H    0.146642
    88  H    0.138448
    89  H    0.123528
    90  H    0.149328
    91  H    0.150343
    92  H    0.147413
    93  H    0.083800
 Sum of Mulliken charges =  -0.00000

 Dipole moment (field-independent basis, Debye):
    X=              3.6510    Y=             -2.0763    Z=             11.0562  Tot=             11.8271
 Quadrupole moment (field-independent basis, Debye-Ang):
   XX=           -360.1271   YY=           -313.2697   ZZ=           -286.4798
   XY=             16.4435   XZ=            -25.0569   YZ=            -10.9609

 Summary of Natural Population Analysis:

                                       Natural Population
                Natural  -----------------------------------------------
    Atom  No    Charge         Core      Valence    Rydberg      Total
 -----------------------------------------------------------------------
      C    1   -0.72191      1.99930     4.70633    0.01628     6.72191
      S    2    0.15683      9.99749     5.79505    0.05063    15.84317
      C    3   -0.63929      1.99939     4.63348    0.00643     6.63929
      C    4    0.09943      1.99909     3.88231    0.01918     5.90057
      N    5   -0.48243      1.99935     5.46224    0.02083     7.48243
      C    6   -0.07452      1.99889     4.05728    0.01835     6.07452
      C    7    0.17957      1.99936     3.80063    0.02044     5.82043
      N    8   -0.37336      1.99942     5.33002    0.04392     7.37336
      C    9   -0.27330      1.99890     4.25643    0.01797     6.27330
      C   10   -0.22361      1.99886     4.20798    0.01677     6.22361
      C   11   -0.22855      1.99897     4.21387    0.01570     6.22855
      C   12   -0.22976      1.99897     4.21496    0.01583     6.22976
      C   13    0.15074      1.99900     3.82893    0.02133     5.84926
      C   14   -0.04381      1.99874     4.02542    0.01965     6.04381
      C   15    0.00194      1.99877     3.98254    0.01675     5.99806
      C   16    0.16013      1.99900     3.81969    0.02117     5.83987
      C   17   -0.64024      1.99939     4.63380    0.00705     6.64024
      C   18   -0.41516      1.99931     4.40279    0.01307     6.41516
      C   19   -0.50181      1.99925     4.48508    0.01748     6.50181
      C   20    0.77633      1.99951     3.18879    0.03537     5.22367
      O   21   -0.70142      1.99965     6.67432    0.02745     8.70142
      O   22   -0.55052      1.99978     6.52664    0.02411     8.55052
      C   23    0.14943      1.99899     3.83081    0.02077     5.85057
      C   24    0.02512      1.99887     3.95835    0.01766     5.97488
      C   25   -0.10499      1.99875     4.08566    0.02058     6.10499
      C   26    0.15936      1.99906     3.82153    0.02005     5.84064
      C   27   -0.63639      1.99938     4.62933    0.00768     6.63639
      C   28   -0.17911      1.99945     4.16422    0.01544     6.17911
      C   29   -0.41078      1.99950     4.39688    0.01441     6.41078
      C   30    0.14400      1.99906     3.83661    0.02033     5.85600
      C   31    0.02681      1.99883     3.95618    0.01818     5.97319
      C   32   -0.10837      1.99872     4.08959    0.02006     6.10837
      C   33    0.17771      1.99908     3.80354    0.01968     5.82229
      C   34   -0.63499      1.99937     4.62779    0.00783     6.63499
      C   35   -0.16094      1.99945     4.14566    0.01584     6.16094
      C   36   -0.44302      1.99951     4.42641    0.01710     6.44302
      C   37    0.15579      1.99904     3.82457    0.02061     5.84421
      C   38   -0.01150      1.99885     3.99581    0.01684     6.01150
      C   39   -0.05044      1.99880     4.03131    0.02033     6.05044
      C   40    0.14400      1.99901     3.83621    0.02078     5.85600
      C   41   -0.63660      1.99939     4.62987    0.00734     6.63660
      C   42   -0.43634      1.99935     4.42274    0.01426     6.43634
      C   43   -0.50990      1.99927     4.49333    0.01730     6.50990
      C   44    0.75504      1.99946     3.21069    0.03482     5.24496
      O   45   -0.62327      1.99960     6.59285    0.03082     8.62327
      O   46   -0.58355      1.99979     6.55992    0.02384     8.58355
      N   47   -0.34609      1.99927     5.30087    0.04596     7.34609
      N   48   -0.36010      1.99936     5.31659    0.04414     7.36010
      N   49   -0.34335      1.99935     5.29941    0.04459     7.34335
      N   50   -0.35917      1.99928     5.31700    0.04289     7.35917
     Fe   51   -0.14671     17.96820     8.13324    0.04528    26.14671
      H   52    0.21412      0.00000     0.78460    0.00128     0.78588
      H   53    0.23561      0.00000     0.76333    0.00105     0.76439
      H   54    0.22668      0.00000     0.77196    0.00137     0.77332
      H   55    0.41267      0.00000     0.58560    0.00173     0.58733
      H   56    0.21668      0.00000     0.78166    0.00166     0.78332
      H   57    0.23261      0.00000     0.76584    0.00155     0.76739
      H   58    0.20998      0.00000     0.78748    0.00254     0.79002
      H   59    0.23935      0.00000     0.75979    0.00086     0.76065
      H   60    0.21176      0.00000     0.78635    0.00188     0.78824
      H   61    0.23213      0.00000     0.74483    0.02304     0.76787
      H   62    0.21846      0.00000     0.78005    0.00149     0.78154
      H   63    0.22513      0.00000     0.77339    0.00148     0.77487
      H   64    0.22141      0.00000     0.77742    0.00116     0.77859
      H   65    0.18936      0.00000     0.80847    0.00216     0.81064
      H   66    0.22477      0.00000     0.77382    0.00141     0.77523
      H   67    0.23602      0.00000     0.76256    0.00142     0.76398
      H   68    0.24825      0.00000     0.75035    0.00140     0.75175
      H   69    0.49924      0.00000     0.49878    0.00198     0.50076
      H   70    0.20645      0.00000     0.79086    0.00268     0.79355
      H   71    0.20227      0.00000     0.79536    0.00237     0.79773
      H   72    0.21662      0.00000     0.78103    0.00235     0.78338
      H   73    0.23014      0.00000     0.76843    0.00143     0.76986
      H   74    0.22743      0.00000     0.77111    0.00146     0.77257
      H   75    0.51310      0.00000     0.48441    0.00248     0.48690
      H   76    0.22221      0.00000     0.77628    0.00151     0.77779
      H   77    0.22379      0.00000     0.77484    0.00136     0.77621
      H   78    0.22266      0.00000     0.77582    0.00152     0.77734
      H   79    0.21460      0.00000     0.78257    0.00283     0.78540
      H   80    0.22433      0.00000     0.77406    0.00161     0.77567
      H   81    0.23447      0.00000     0.76402    0.00152     0.76553
      H   82    0.21265      0.00000     0.78617    0.00118     0.78735
      H   83    0.19947      0.00000     0.79816    0.00237     0.80053
      H   84    0.19125      0.00000     0.80686    0.00190     0.80875
      H   85    0.19829      0.00000     0.79965    0.00206     0.80171
      H   86    0.21816      0.00000     0.77894    0.00290     0.78184
      H   87    0.23074      0.00000     0.76776    0.00150     0.76926
      H   88    0.22942      0.00000     0.76886    0.00172     0.77058
      H   89    0.21212      0.00000     0.78674    0.00114     0.78788
      H   90    0.19840      0.00000     0.79919    0.00241     0.80160
      H   91    0.19428      0.00000     0.80355    0.00217     0.80572
      H   92    0.19241      0.00000     0.80551    0.00207     0.80759
      H   93    0.21360      0.00000     0.78363    0.00277     0.78640
 =======================================================================
   * Total *    0.00000    125.92643   264.84562    1.22796   392.00000

 Normal termination of Gaussian 16 at Fri Sep  2 21:14:04 2022.
