 Gaussian 16, Revision A.03,

 ---------------------------------------------------------------------
 # polar def2tzvp empiricaldispersion=gd3bj int=grid=ultrafine pbe1pbe
 ---------------------------------------------------------------------

 ---------
 1fhf_II_S
 ---------
 Symbolic Z-matrix:
 Charge =  0 Multiplicity = 1

 SCF Done:  E(RPBE1PBE) =  -3455.42249404     A.U. after   27 cycles

  Exact polarizability: 942.672 -11.882 798.251 -32.394  -3.451 413.770
 Approx polarizability:1833.225  -4.0621493.588 -68.090  16.634 692.548

 Normal termination of Gaussian 16 at Sat Aug 27 06:42:23 2022.
 Gaussian 16:  ES64L-G16RevA.03 25-Dec-2016

 ----------------------------------------------------------------------
 # PBE1PBE/def2TZVP empiricaldispersion=GD3BJ int=(grid=ultrafine) geom
 =check guess=read pop=nbo scf=qc
 ----------------------------------------------------------------------

 -------------
 1fhf_II_S_nbo
 -------------
 Structure from the checkpoint file:  "1fhf_II_S.chk"
 Charge =  0 Multiplicity = 1

                         Standard orientation:
 ---------------------------------------------------------------------
 Center     Atomic      Atomic             Coordinates (Angstroms)
 Number     Number       Type             X           Y           Z
 ---------------------------------------------------------------------
      1          6           0        1.574455    1.471442    5.288724
      2          6           0        1.478990    0.546920    4.091458
      3          7           0        1.923798   -0.780184    4.063819
      4          6           0        0.987139    0.908072    2.818344
      5          6           0        1.735495   -1.143950    2.750388
      6          7           0        1.208323   -0.206906    1.964709
      7          6           0       -2.526192    0.021684    0.217951
      8          6           0        0.745288   -3.574735   -0.267713
      9          6           0        4.285837   -0.286277   -0.862747
     10          6           0        1.060043    3.309501   -0.327218
     11          6           0       -1.962654   -1.248221    0.007234
     12          6           0       -2.747564   -2.536535    0.095671
     13          6           0       -1.799014   -3.529013   -0.044134
     14          6           0       -0.460496   -2.868148   -0.149965
     15          6           0       -2.058203   -5.046150   -0.071571
     16          6           0       -4.201906   -2.705018    0.639728
     17          6           0       -5.247258   -3.791751    0.294099
     18          6           0       -6.293227   -3.330954   -0.726464
     19          8           0       -6.867937   -2.237520   -0.545982
     20          8           0       -6.553513   -4.061824   -1.707278
     21          6           0        1.997533   -2.985463   -0.438172
     22          6           0        3.270645   -3.743646   -0.427193
     23          6           0        4.278133   -2.820638   -0.599353
     24          6           0        3.615894   -1.487770   -0.688674
     25          6           0        3.481572   -5.252671   -0.222994
     26          6           0        5.623445   -3.187713   -0.738130
     27          6           0        6.727166   -2.323102   -0.101069
     28          6           0        3.681894    0.956685   -0.861822
     29          6           0        4.384402    2.173846   -1.246275
     30          6           0        3.476134    3.187106   -1.157484
     31          6           0        2.219063    2.588805   -0.660039
     32          6           0        5.830301    2.288894   -1.724444
     33          6           0        3.676373    4.515237   -1.542431
     34          6           0        4.888638    5.298291   -1.004995
     35          6           0       -0.171354    2.710525   -0.008698
     36          6           0       -1.391958    3.433633    0.332542
     37          6           0       -2.389602    2.508832    0.460465
     38          6           0       -1.787427    1.211591    0.257239
     39          6           0       -1.518515    4.936155    0.541177
     40          6           0       -3.894104    2.757666    0.625123
     41          6           0       -4.478596    3.641028   -0.473852
     42          6           0       -5.986715    3.728601   -0.415519
     43          8           0       -6.524449    3.884452    0.699027
     44          8           0       -6.630647    3.652867   -1.482189
     45          7           0       -0.549766   -1.463686   -0.137979
     46          7           0        2.209905   -1.589673   -0.531478
     47          7           0        2.329562    1.186071   -0.573896
     48          7           0       -0.398483    1.313698   -0.003540
     49         26           0        0.910840   -0.139844   -0.257081
     50          1           0        1.995385   -2.115287    2.384519
     51          1           0        2.289178   -1.329601    4.815243
     52          1           0        0.535663    1.839861    2.548459
     53          1           0        0.984291    2.346255    5.111778
     54          1           0        1.211312    0.966297    6.159273
     55          1           0        2.595153    1.754441    5.440331
     56          1           0       -6.710018   -3.670121   -2.569644
     57          1           0       -4.736066   -4.644486   -0.101408
     58          1           0       -5.750617   -4.080290    1.193141
     59          1           0       -4.090160   -2.762809    1.702307
     60          1           0       -4.686743   -1.778671    0.412324
     61          1           0       -1.858315   -5.424455   -1.052301
     62          1           0       -1.416992   -5.530366    0.635030
     63          1           0       -3.079462   -5.238182    0.183486
     64          1           0       -3.585291    0.083825    0.357042
     65          1           0       -4.401266    1.815553    0.614674
     66          1           0       -4.062857    3.228964    1.570798
     67          1           0       -4.193154    3.242157   -1.424812
     68          1           0       -4.072252    4.626089   -0.376702
     69          1           0       -6.555520    4.349246   -2.138703
     70          1           0       -2.152433    5.349162   -0.215442
     71          1           0       -1.941836    5.128009    1.504967
     72          1           0       -0.550235    5.387455    0.480662
     73          1           0        1.117884    4.377872   -0.315437
     74          1           0        5.950575    3.194106   -2.282142
     75          1           0        6.485725    2.301231   -0.878769
     76          1           0        6.067605    1.451949   -2.347429
     77          1           0        5.345246   -0.324217   -1.008051
     78          1           0        3.964896   -5.664974   -1.083984
     79          1           0        4.092659   -5.413770    0.640441
     80          1           0        2.533969   -5.729576   -0.083313
     81          1           0        0.701117   -4.642911   -0.223565
     82          7           0        0.273493    0.160536   -2.097839
     83          6           0        0.456961    0.068650   -3.364113
     84          1           0        0.849630   -0.122781   -4.340876
     85          1           0        5.883763   -4.068724   -1.286725
     86          1           0        7.084780   -1.452134   -0.609427
     87          1           0        7.136425   -2.593334    0.849921
     88          1           0        2.987428    4.988262   -2.210641
     89          1           0        5.282130    6.123181   -1.561431
     90          1           0        5.337435    5.017472   -0.075144
 ---------------------------------------------------------------------

 SCF Done:  E(RPBE1PBE) =  -3455.42249404     a.u. after    1 cycles

 The electronic state is 1-A.
 Alpha  occ. eigenvalues -- -256.32667 -30.09651 -25.92602 -25.92079 -25.91930
 Alpha  occ. eigenvalues --  -19.26443 -19.25302 -19.17628 -19.17531 -14.45423
 Alpha  occ. eigenvalues --  -14.45345 -14.39682 -14.38055 -14.37804 -14.37507
 Alpha  occ. eigenvalues --  -14.36948 -10.35328 -10.34612 -10.31813 -10.28619
 Alpha  occ. eigenvalues --  -10.27122 -10.25319 -10.25143 -10.25008 -10.24951
 Alpha  occ. eigenvalues --  -10.24902 -10.24664 -10.24433 -10.24287 -10.24219
 Alpha  occ. eigenvalues --  -10.24158 -10.24108 -10.23702 -10.23193 -10.23191
 Alpha  occ. eigenvalues --  -10.23102 -10.22879 -10.22805 -10.22656 -10.22477
 Alpha  occ. eigenvalues --  -10.22367 -10.22266 -10.22232 -10.21858 -10.21777
 Alpha  occ. eigenvalues --  -10.21625 -10.21572 -10.21503 -10.21502 -10.21401
 Alpha  occ. eigenvalues --  -10.21371 -10.21361 -10.21011 -10.20711 -10.20381
 Alpha  occ. eigenvalues --   -3.44146  -2.20421  -2.19366  -2.19117  -1.17131
 Alpha  occ. eigenvalues --   -1.16357  -1.03933  -1.02411  -1.02378  -0.95740
 Alpha  occ. eigenvalues --   -0.94580  -0.94418  -0.93186  -0.91401  -0.90476
 Alpha  occ. eigenvalues --   -0.82880  -0.82662  -0.82425  -0.82187  -0.81761
 Alpha  occ. eigenvalues --   -0.80061  -0.79786  -0.79290  -0.78505  -0.77928
 Alpha  occ. eigenvalues --   -0.75723  -0.74548  -0.74190  -0.73211  -0.72380
 Alpha  occ. eigenvalues --   -0.71384  -0.70536  -0.70239  -0.70118  -0.69180
 Alpha  occ. eigenvalues --   -0.68281  -0.65733  -0.65134  -0.64699  -0.64367
 Alpha  occ. eigenvalues --   -0.63919  -0.63809  -0.62241  -0.61731  -0.61258
 Alpha  occ. eigenvalues --   -0.57998  -0.56280  -0.55395  -0.54646  -0.54020
 Alpha  occ. eigenvalues --   -0.53672  -0.53007  -0.52690  -0.52116  -0.51432
 Alpha  occ. eigenvalues --   -0.51004  -0.50641  -0.50119  -0.49954  -0.49329
 Alpha  occ. eigenvalues --   -0.48453  -0.48094  -0.47744  -0.47664  -0.47332
 Alpha  occ. eigenvalues --   -0.47005  -0.46847  -0.45960  -0.45738  -0.45028
 Alpha  occ. eigenvalues --   -0.44541  -0.44508  -0.44085  -0.43884  -0.43548
 Alpha  occ. eigenvalues --   -0.43417  -0.43271  -0.43120  -0.42672  -0.42544
 Alpha  occ. eigenvalues --   -0.42441  -0.42182  -0.42131  -0.41806  -0.41537
 Alpha  occ. eigenvalues --   -0.41214  -0.41015  -0.40654  -0.40529  -0.39969
 Alpha  occ. eigenvalues --   -0.39848  -0.39579  -0.39261  -0.39070  -0.38607
 Alpha  occ. eigenvalues --   -0.38507  -0.38135  -0.37840  -0.37574  -0.37183
 Alpha  occ. eigenvalues --   -0.36793  -0.36741  -0.36562  -0.36318  -0.35933
 Alpha  occ. eigenvalues --   -0.35691  -0.35442  -0.35278  -0.34464  -0.34203
 Alpha  occ. eigenvalues --   -0.33820  -0.32896  -0.32615  -0.32403  -0.32338
 Alpha  occ. eigenvalues --   -0.31777  -0.31245  -0.30537  -0.30265  -0.27860
 Alpha  occ. eigenvalues --   -0.27628  -0.27327  -0.27267  -0.26445  -0.26020
 Alpha  occ. eigenvalues --   -0.24356  -0.23705  -0.23436  -0.22288  -0.21393
 Alpha  occ. eigenvalues --   -0.19986  -0.19176  -0.18476  -0.18387  -0.16090
 Alpha virt. eigenvalues --   -0.09964  -0.06927  -0.06388  -0.05565  -0.03301
 Alpha virt. eigenvalues --   -0.02983  -0.00750  -0.00426   0.00357   0.01403
 Alpha virt. eigenvalues --    0.02139   0.03053   0.03139   0.03311   0.04286

 Mulliken charges:
               1
     1  C   -0.382683
     2  C    0.131987
     3  N   -0.228244
     4  C   -0.172573
     5  C    0.031916
     6  N   -0.083535
     7  C   -0.426808
     8  C   -0.502529
     9  C   -0.439013
    10  C   -0.486775
    11  C    0.216600
    12  C   -0.186152
    13  C   -0.053617
    14  C    0.228394
    15  C   -0.403427
    16  C   -0.202120
    17  C   -0.091735
    18  C    0.226731
    19  O   -0.363190
    20  O   -0.331791
    21  C    0.243702
    22  C   -0.094037
    23  C    0.055739
    24  C    0.240078
    25  C   -0.392561
    26  C   -0.206311
    27  C   -0.381433
    28  C    0.250668
    29  C   -0.102948
    30  C    0.084357
    31  C    0.189290
    32  C   -0.373789
    33  C   -0.292136
    34  C   -0.314966
    35  C    0.234301
    36  C   -0.057826
    37  C    0.000738
    38  C    0.270396
    39  C   -0.400326
    40  C   -0.314834
    41  C   -0.217622
    42  C    0.309182
    43  O   -0.344076
    44  O   -0.337637
    45  N    0.024595
    46  N   -0.022135
    47  N    0.034301
    48  N   -0.027472
    49  Fe  -0.210810
    50  H    0.155763
    51  H    0.244978
    52  H    0.154541
    53  H    0.145859
    54  H    0.126841
    55  H    0.140429
    56  H    0.352167
    57  H    0.076352
    58  H    0.131256
    59  H    0.128477
    60  H    0.148896
    61  H    0.142753
    62  H    0.127177
    63  H    0.123084
    64  H    0.116479
    65  H    0.113126
    66  H    0.130989
    67  H    0.116970
    68  H    0.109567
    69  H    0.349719
    70  H    0.126960
    71  H    0.140996
    72  H    0.130002
    73  H    0.112740
    74  H    0.150251
    75  H    0.135074
    76  H    0.128135
    77  H    0.084943
    78  H    0.135835
    79  H    0.138079
    80  H    0.122885
    81  H    0.106810
    82  N   -0.014480
    83  C   -0.048854
    84  H    0.235590
    85  H    0.146442
    86  H    0.149394
    87  H    0.143028
    88  H    0.132617
    89  H    0.138015
    90  H    0.142251
 Sum of Mulliken charges =  -0.00000

 Dipole moment (field-independent basis, Debye):
    X=              3.1999    Y=             -2.4093    Z=             -1.7928  Tot=              4.3885
 Quadrupole moment (field-independent basis, Debye-Ang):
   XX=           -345.2192   YY=           -274.3238   ZZ=           -248.4204
   XY=              6.8858   XZ=             36.2938   YZ=            -15.0856

 Summary of Natural Population Analysis:

                                       Natural Population
                Natural  -----------------------------------------------
    Atom  No    Charge         Core      Valence    Rydberg      Total
 -----------------------------------------------------------------------
      C    1   -0.64039      1.99938     4.63459    0.00642     6.64039
      C    2    0.11161      1.99926     3.87392    0.01521     5.88839
      N    3   -0.51429      1.99942     5.49597    0.01890     7.51429
      C    4   -0.08265      1.99908     4.06504    0.01853     6.08265
      C    5    0.20015      1.99941     3.78208    0.01837     5.79985
      N    6   -0.35943      1.99945     5.31623    0.04375     7.35943
      C    7   -0.23642      1.99898     4.22202    0.01542     6.23642
      C    8   -0.26321      1.99898     4.24792    0.01631     6.26321
      C    9   -0.24961      1.99894     4.23266    0.01800     6.24961
      C   10   -0.25023      1.99900     4.23567    0.01556     6.25023
      C   11    0.16052      1.99908     3.82123    0.01917     5.83948
      C   12   -0.03593      1.99880     4.01962    0.01751     6.03593
      C   13   -0.02801      1.99893     4.01330    0.01578     6.02801
      C   14    0.15408      1.99910     3.82697    0.01985     5.84592
      C   15   -0.63625      1.99937     4.62962    0.00726     6.63625
      C   16   -0.42897      1.99923     4.41593    0.01381     6.42897
      C   17   -0.49774      1.99922     4.48231    0.01622     6.49774
      C   18    0.76827      1.99956     3.19549    0.03669     5.23173
      O   19   -0.60567      1.99978     6.58153    0.02436     8.60567
      O   20   -0.65948      1.99961     6.63243    0.02744     8.65948
      C   21    0.14130      1.99906     3.83945    0.02019     5.85870
      C   22   -0.00027      1.99893     3.98401    0.01734     6.00027
      C   23   -0.14024      1.99884     4.11977    0.02163     6.14024
      C   24    0.17732      1.99907     3.80414    0.01947     5.82268
      C   25   -0.63897      1.99938     4.63130    0.00829     6.63897
      C   26   -0.13403      1.99922     4.11323    0.02158     6.13403
      C   27   -0.45220      1.99953     4.43538    0.01729     6.45220
      C   28    0.14490      1.99902     3.83659    0.01949     5.85510
      C   29    0.02525      1.99888     3.95857    0.01730     5.97475
      C   30   -0.15153      1.99886     4.12979    0.02289     6.15153
      C   31    0.17501      1.99913     3.80624    0.01961     5.82499
      C   32   -0.64514      1.99939     4.63840    0.00735     6.64514
      C   33   -0.17942      1.99920     4.16116    0.01906     6.17942
      C   34   -0.40356      1.99951     4.39318    0.01087     6.40356
      C   35    0.14487      1.99907     3.83602    0.02004     5.85513
      C   36   -0.03943      1.99887     4.02401    0.01655     6.03943
      C   37   -0.04063      1.99883     4.02273    0.01907     6.04063
      C   38    0.14992      1.99901     3.83166    0.01941     5.85008
      C   39   -0.63577      1.99939     4.62876    0.00762     6.63577
      C   40   -0.41037      1.99933     4.39613    0.01492     6.41037
      C   41   -0.51605      1.99925     4.49958    0.01722     6.51605
      C   42    0.77037      1.99949     3.19477    0.03538     5.22963
      O   43   -0.56533      1.99978     6.54212    0.02343     8.56533
      O   44   -0.67315      1.99958     6.64332    0.03025     8.67315
      N   45   -0.36231      1.99938     5.31962    0.04331     7.36231
      N   46   -0.36929      1.99940     5.32765    0.04224     7.36929
      N   47   -0.35756      1.99937     5.31502    0.04317     7.35756
      N   48   -0.36922      1.99937     5.32612    0.04372     7.36922
     Fe   49    0.13569     17.98532     7.83158    0.04741    25.86431
      H   50    0.21200      0.00000     0.78608    0.00191     0.78800
      H   51    0.42505      0.00000     0.57310    0.00186     0.57495
      H   52    0.23584      0.00000     0.76257    0.00159     0.76416
      H   53    0.23447      0.00000     0.76456    0.00097     0.76553
      H   54    0.21377      0.00000     0.78468    0.00155     0.78623
      H   55    0.22044      0.00000     0.77800    0.00156     0.77956
      H   56    0.51509      0.00000     0.48207    0.00285     0.48491
      H   57    0.21459      0.00000     0.78379    0.00163     0.78541
      H   58    0.24214      0.00000     0.75679    0.00107     0.75786
      H   59    0.22128      0.00000     0.77665    0.00207     0.77872
      H   60    0.24065      0.00000     0.75765    0.00170     0.75935
      H   61    0.22158      0.00000     0.77686    0.00156     0.77842
      H   62    0.21706      0.00000     0.78132    0.00162     0.78294
      H   63    0.21158      0.00000     0.78669    0.00173     0.78842
      H   64    0.21505      0.00000     0.78187    0.00309     0.78495
      H   65    0.21880      0.00000     0.77981    0.00139     0.78120
      H   66    0.23413      0.00000     0.76418    0.00169     0.76587
      H   67    0.21343      0.00000     0.78495    0.00162     0.78657
      H   68    0.22981      0.00000     0.76863    0.00156     0.77019
      H   69    0.51095      0.00000     0.48673    0.00232     0.48905
      H   70    0.21134      0.00000     0.78671    0.00195     0.78866
      H   71    0.22296      0.00000     0.77546    0.00158     0.77704
      H   72    0.21872      0.00000     0.78007    0.00120     0.78128
      H   73    0.21867      0.00000     0.77882    0.00252     0.78133
      H   74    0.23711      0.00000     0.76126    0.00163     0.76289
      H   75    0.22173      0.00000     0.77675    0.00153     0.77827
      H   76    0.21388      0.00000     0.78448    0.00164     0.78612
      H   77    0.22308      0.00000     0.77370    0.00322     0.77692
      H   78    0.22038      0.00000     0.77794    0.00168     0.77962
      H   79    0.22426      0.00000     0.77388    0.00187     0.77574
      H   80    0.21557      0.00000     0.78323    0.00120     0.78443
      H   81    0.21246      0.00000     0.78467    0.00286     0.78754
      N   82   -0.18421      1.99950     5.14285    0.04186     7.18421
      C   83    0.17146      1.99933     3.81458    0.01463     5.82854
      H   84    0.24989      0.00000     0.74852    0.00159     0.75011
      H   85    0.20923      0.00000     0.78846    0.00231     0.79077
      H   86    0.18824      0.00000     0.81012    0.00164     0.81176
      H   87    0.19456      0.00000     0.80340    0.00204     0.80544
      H   88    0.20972      0.00000     0.78837    0.00191     0.79028
      H   89    0.19117      0.00000     0.80732    0.00151     0.80883
      H   90    0.19556      0.00000     0.80290    0.00154     0.80444
 =======================================================================
   * Total *   -0.00000    117.94686   260.87529    1.17784   380.00000

 Normal termination of Gaussian 16 at Sat Aug 27 07:28:27 2022.
