 Gaussian 16, Revision A.03,

 ---------------------------------------------------------------------
 # polar def2tzvp empiricaldispersion=gd3bj int=grid=ultrafine pbe1pbe
 ---------------------------------------------------------------------

 ---------
 1jdl_II_S
 ---------
 Symbolic Z-matrix:
 Charge =  0 Multiplicity = 1

 SCF Done:  E(RPBE1PBE) =  -3879.40544531     A.U. after   23 cycles

  Exact polarizability: 877.144  -4.007 807.496 -34.590  66.712 450.999
 Approx polarizability:1549.261   0.7051480.579 -72.258 181.879 731.150

 Normal termination of Gaussian 16 at Tue Nov  8 19:46:06 2022.
 Gaussian 16:  ES64L-G16RevA.03 25-Dec-2016

 ----------------------------------------------------------------------
 # PBE1PBE/def2TZVP empiricaldispersion=GD3BJ int=(grid=ultrafine) geom
 =check guess=read pop=nbo scf=qc
 ----------------------------------------------------------------------

 -------------
 1jdl_II_S_nbo
 -------------
 Structure from the checkpoint file:  "1jdl_II_S.chk"
 Charge =  0 Multiplicity = 1

                         Standard orientation:
 ---------------------------------------------------------------------
 Center     Atomic      Atomic             Coordinates (Angstroms)
 Number     Number       Type             X           Y           Z
 ---------------------------------------------------------------------
      1          6           0        2.628197   -1.653437    4.968101
      2          6           0        1.748235   -1.176809    3.861118
      3          7           0        0.372586   -1.186335    3.945932
      4          6           0        2.046149   -0.743884    2.614204
      5          6           0       -0.138560   -0.788081    2.796042
      6          7           0        0.855806   -0.515189    1.969990
      7          6           0       -0.739312    3.003911   -2.731769
      8          6           0        0.569495    2.199125   -2.627158
      9         16           0        0.513857    0.426977   -2.321855
     10          6           0        1.846977   -0.128049   -3.358084
     11          6           0       -2.575871   -0.206679   -0.122090
     12          6           0        0.982946   -3.406362   -0.720520
     13          6           0        4.226628    0.134754   -0.180032
     14          6           0        0.698568    3.174317    0.948896
     15          6           0       -1.883354   -1.388270   -0.393026
     16          6           0       -2.510979   -2.634633   -0.763470
     17          6           0       -1.496928   -3.524758   -0.934836
     18          6           0       -0.265109   -2.825284   -0.657178
     19          6           0       -1.611219   -4.971493   -1.390583
     20          6           0       -4.022390   -2.900731   -0.779420
     21          6           0       -4.413907   -3.359814    0.624465
     22          6           0       -5.920021   -3.549819    0.827078
     23          8           0       -6.694327   -3.439326   -0.144123
     24          8           0       -6.328114   -3.822468    1.974742
     25          6           0        2.177199   -2.711111   -0.594377
     26          6           0        3.486565   -3.299901   -0.725974
     27          6           0        4.357073   -2.248457   -0.799642
     28          6           0        3.630986   -1.086835   -0.453372
     29          6           0        3.777097   -4.794450   -0.744555
     30          6           0        5.635529   -2.155796   -1.388016
     31          6           0        6.403027   -3.220598   -2.152412
     32          6           0        3.549816    1.279575    0.125707
     33          6           0        4.168260    2.558566    0.405614
     34          6           0        3.155792    3.428939    0.552724
     35          6           0        1.936804    2.647933    0.617000
     36          6           0        5.667786    2.836749    0.528651
     37          6           0        3.160709    4.839283    0.470760
     38          6           0        4.329621    5.815657    0.394968
     39          6           0       -0.499300    2.505772    0.834699
     40          6           0       -1.788819    3.127881    1.022625
     41          6           0       -2.726000    2.206661    0.646958
     42          6           0       -1.979690    1.007552    0.251152
     43          6           0       -2.062936    4.563454    1.479455
     44          6           0       -4.237221    2.435493    0.549054
     45          6           0       -4.522676    2.884367   -0.888457
     46          6           0       -5.962039    3.292759   -1.128965
     47          8           0       -6.264316    3.711526   -2.267450
     48          8           0       -6.793143    3.198227   -0.199038
     49          7           0       -0.504776   -1.504065   -0.347971
     50          7           0        2.263013   -1.346479   -0.413305
     51          7           0        2.172036    1.345818    0.236454
     52          7           0       -0.609798    1.205371    0.371142
     53         26           0        0.839391   -0.064255   -0.077962
     54          1           0       -5.804586   -3.577348    2.741184
     55          1           0       -3.924645   -4.289841    0.825894
     56          1           0       -4.066100   -2.632811    1.328309
     57          1           0       -4.548121   -2.002941   -1.029380
     58          1           0       -4.250264   -3.667102   -1.490509
     59          1           0       -4.537458    3.197891    1.237173
     60          1           0       -4.759700    1.525670    0.759141
     61          1           0       -3.889817    3.716179   -1.117540
     62          1           0       -4.281859    2.079274   -1.550826
     63          1           0       -6.622239    3.626692    0.642870
     64          1           0       -3.642398   -0.228639   -0.205385
     65          1           0        0.671568    4.176671    1.322336
     66          1           0        5.295065    0.183535   -0.211053
     67          1           0        1.034461   -4.463553   -0.877342
     68          1           0       -1.376548    5.228193    0.997902
     69          1           0       -3.064634    4.835344    1.219496
     70          1           0       -1.939175    4.629973    2.540190
     71          1           0       -0.680933   -5.472827   -1.222858
     72          1           0       -2.384793   -5.460133   -0.835862
     73          1           0       -1.848328   -4.999194   -2.433613
     74          1           0        4.725511   -4.979168   -0.284893
     75          1           0        3.012285   -5.313201   -0.205241
     76          1           0        3.797660   -5.141240   -1.756590
     77          1           0        5.822972    3.878461    0.717473
     78          1           0        6.071701    2.263709    1.336968
     79          1           0        6.157329    2.562616   -0.382447
     80          1           0        5.334741    5.448999    0.409008
     81          1           0        4.144695    6.867410    0.327746
     82          1           0        2.192087    5.293772    0.460203
     83          1           0        7.433211   -3.065857   -2.396700
     84          1           0        5.913501   -4.125429   -2.446597
     85          1           0        6.129144   -1.212384   -1.282102
     86          1           0        2.781570    0.135138   -2.908453
     87          1           0        1.792246   -1.190655   -3.471106
     88          1           0        1.769671    0.337235   -4.318519
     89          1           0        1.104795    2.345717   -3.541961
     90          1           0       -0.575583    3.874710   -3.331603
     91          1           0       -1.496102    2.396978   -3.183213
     92          1           0       -1.055617    3.299214   -1.753174
     93          1           0        1.148191    2.637383   -1.841066
     94          1           0        3.288583   -0.865035    5.263418
     95          1           0        2.025308   -1.945079    5.802589
     96          1           0        3.201652   -2.491951    4.632027
     97          1           0        3.025852   -0.605726    2.206780
     98          1           0       -1.181018   -0.701033    2.571091
     99          1           0       -0.155405   -1.453126    4.752188
 ---------------------------------------------------------------------

 SCF Done:  E(RPBE1PBE) =  -3879.40544531     a.u. after    1 cycles

 The electronic state is 1-A.
 Alpha  occ. eigenvalues -- -256.31825 -89.02440 -30.08844 -25.91660 -25.91292
 Alpha  occ. eigenvalues --  -25.91232 -19.27642 -19.26239 -19.17931 -19.17493
 Alpha  occ. eigenvalues --  -14.45588 -14.39417 -14.37912 -14.37891 -14.37791
 Alpha  occ. eigenvalues --  -14.37313 -10.35550 -10.34963 -10.28631 -10.26628
 Alpha  occ. eigenvalues --  -10.25418 -10.24823 -10.24757 -10.24705 -10.24649
 Alpha  occ. eigenvalues --  -10.24633 -10.24590 -10.24577 -10.24417 -10.24414
 Alpha  occ. eigenvalues --  -10.24060 -10.24035 -10.23835 -10.23620 -10.23447
 Alpha  occ. eigenvalues --  -10.23129 -10.23088 -10.23027 -10.23001 -10.22900
 Alpha  occ. eigenvalues --  -10.22895 -10.22834 -10.22805 -10.22747 -10.22355
 Alpha  occ. eigenvalues --  -10.22345 -10.22267 -10.22067 -10.21935 -10.21813
 Alpha  occ. eigenvalues --  -10.21813 -10.21750 -10.21597 -10.21592 -10.21564
 Alpha  occ. eigenvalues --  -10.21496 -10.20239  -8.00259  -5.93913  -5.93614
 Alpha  occ. eigenvalues --   -5.93097  -3.43278  -2.19234  -2.18617  -2.18508
 Alpha  occ. eigenvalues --   -1.17980  -1.16893  -1.07372  -1.03113  -1.02348
 Alpha  occ. eigenvalues --   -0.98263  -0.97219  -0.96996  -0.96010  -0.91541
 Alpha  occ. eigenvalues --   -0.84582  -0.84136  -0.83916  -0.83632  -0.82959
 Alpha  occ. eigenvalues --   -0.82508  -0.82283  -0.81401  -0.81013  -0.79482
 Alpha  occ. eigenvalues --   -0.78831  -0.76733  -0.76529  -0.75709  -0.75186
 Alpha  occ. eigenvalues --   -0.73434  -0.73385  -0.72882  -0.71864  -0.71402
 Alpha  occ. eigenvalues --   -0.70298  -0.69945  -0.69571  -0.67568  -0.67212
 Alpha  occ. eigenvalues --   -0.66938  -0.65727  -0.65534  -0.65473  -0.63088
 Alpha  occ. eigenvalues --   -0.62896  -0.62237  -0.60231  -0.59547  -0.57923
 Alpha  occ. eigenvalues --   -0.57367  -0.56367  -0.55321  -0.54724  -0.54547
 Alpha  occ. eigenvalues --   -0.53978  -0.53812  -0.52767  -0.52473  -0.51716
 Alpha  occ. eigenvalues --   -0.51179  -0.50844  -0.49657  -0.49122  -0.48839
 Alpha  occ. eigenvalues --   -0.48759  -0.48467  -0.48353  -0.47763  -0.47521
 Alpha  occ. eigenvalues --   -0.46756  -0.46431  -0.46069  -0.45860  -0.45639
 Alpha  occ. eigenvalues --   -0.45127  -0.45008  -0.44833  -0.44665  -0.44616
 Alpha  occ. eigenvalues --   -0.44346  -0.44179  -0.43982  -0.43963  -0.43795
 Alpha  occ. eigenvalues --   -0.43670  -0.43482  -0.43293  -0.43106  -0.42672
 Alpha  occ. eigenvalues --   -0.42421  -0.41786  -0.41677  -0.41158  -0.41057
 Alpha  occ. eigenvalues --   -0.40940  -0.40701  -0.40378  -0.40254  -0.39733
 Alpha  occ. eigenvalues --   -0.39606  -0.39464  -0.39339  -0.39214  -0.38704
 Alpha  occ. eigenvalues --   -0.38440  -0.38230  -0.37965  -0.37749  -0.37542
 Alpha  occ. eigenvalues --   -0.37092  -0.36920  -0.36259  -0.36063  -0.35711
 Alpha  occ. eigenvalues --   -0.35642  -0.35318  -0.34991  -0.33649  -0.33280
 Alpha  occ. eigenvalues --   -0.33091  -0.32962  -0.32701  -0.32592  -0.32394
 Alpha  occ. eigenvalues --   -0.31286  -0.31116  -0.30589  -0.29985  -0.28250
 Alpha  occ. eigenvalues --   -0.27942  -0.27664  -0.27393  -0.25809  -0.25346
 Alpha  occ. eigenvalues --   -0.24841  -0.24038  -0.22257  -0.21968  -0.20915
 Alpha  occ. eigenvalues --   -0.19209  -0.19039  -0.18802  -0.18688
 Alpha virt. eigenvalues --   -0.07928  -0.07763  -0.04316  -0.02181  -0.00680
 Alpha virt. eigenvalues --   -0.00223   0.00807   0.01131   0.01360   0.01486
 Alpha virt. eigenvalues --    0.01855   0.02351   0.03553   0.03645   0.03960

 Mulliken charges:
               1
     1  C   -0.355115
     2  C    0.127722
     3  N   -0.217868
     4  C   -0.178738
     5  C    0.017729
     6  N   -0.016682
     7  C   -0.359490
     8  C   -0.158891
     9  S    0.065694
    10  C   -0.381003
    11  C   -0.553075
    12  C   -0.486751
    13  C   -0.493527
    14  C   -0.417890
    15  C    0.284080
    16  C   -0.012500
    17  C   -0.077957
    18  C    0.286628
    19  C   -0.395538
    20  C   -0.295809
    21  C   -0.308711
    22  C    0.313612
    23  O   -0.356123
    24  O   -0.289352
    25  C    0.210784
    26  C   -0.060348
    27  C   -0.010775
    28  C    0.233476
    29  C   -0.425310
    30  C   -0.154778
    31  C   -0.333217
    32  C    0.244856
    33  C   -0.093702
    34  C    0.035587
    35  C    0.148690
    36  C   -0.363746
    37  C   -0.156019
    38  C   -0.314279
    39  C    0.181710
    40  C   -0.092006
    41  C    0.081477
    42  C    0.178327
    43  C   -0.408347
    44  C   -0.356376
    45  C   -0.242337
    46  C    0.303102
    47  O   -0.348176
    48  O   -0.304516
    49  N    0.044277
    50  N    0.057320
    51  N    0.044371
    52  N    0.074097
    53  Fe  -0.530225
    54  H    0.338474
    55  H    0.142261
    56  H    0.126635
    57  H    0.134629
    58  H    0.137392
    59  H    0.122312
    60  H    0.128460
    61  H    0.143611
    62  H    0.147961
    63  H    0.343437
    64  H    0.109782
    65  H    0.119019
    66  H    0.117467
    67  H    0.099264
    68  H    0.139362
    69  H    0.118770
    70  H    0.144692
    71  H    0.124640
    72  H    0.123533
    73  H    0.148840
    74  H    0.158651
    75  H    0.130305
    76  H    0.142439
    77  H    0.111338
    78  H    0.136818
    79  H    0.138102
    80  H    0.117079
    81  H    0.135962
    82  H    0.107492
    83  H    0.136930
    84  H    0.136243
    85  H    0.101531
    86  H    0.152517
    87  H    0.150650
    88  H    0.152910
    89  H    0.120206
    90  H    0.127107
    91  H    0.122795
    92  H    0.127547
    93  H    0.131671
    94  H    0.149093
    95  H    0.112847
    96  H    0.150214
    97  H    0.162484
    98  H    0.165653
    99  H    0.226513
 Sum of Mulliken charges =  -0.00000

 Dipole moment (field-independent basis, Debye):
    X=              4.4366    Y=             -1.8341    Z=              9.8926  Tot=             10.9959
 Quadrupole moment (field-independent basis, Debye-Ang):
   XX=           -380.7254   YY=           -316.6188   ZZ=           -296.1392
   XY=             -5.4168   XZ=            -42.4074   YZ=             -2.6683

 Summary of Natural Population Analysis:

                                       Natural Population
                Natural  -----------------------------------------------
    Atom  No    Charge         Core      Valence    Rydberg      Total
 -----------------------------------------------------------------------
      C    1   -0.63854      1.99939     4.63266    0.00649     6.63854
      C    2    0.09534      1.99909     3.88631    0.01927     5.90466
      N    3   -0.48139      1.99936     5.46145    0.02058     7.48139
      C    4   -0.06628      1.99886     4.04861    0.01881     6.06628
      C    5    0.18602      1.99933     3.79467    0.01998     5.81398
      N    6   -0.32866      1.99939     5.27526    0.05401     7.32866
      C    7   -0.60878      1.99943     4.60165    0.00769     6.60878
      C    8   -0.54433      1.99927     4.52618    0.01887     6.54433
      S    9    0.59517      9.99855     5.36343    0.04285    15.40483
      C   10   -0.75515      1.99932     4.73762    0.01821     6.75515
      C   11   -0.25988      1.99900     4.24336    0.01752     6.25988
      C   12   -0.23107      1.99896     4.21521    0.01690     6.23107
      C   13   -0.25145      1.99892     4.23557    0.01696     6.25145
      C   14   -0.24988      1.99894     4.23376    0.01718     6.24988
      C   15    0.14608      1.99904     3.83381    0.02107     5.85392
      C   16   -0.03978      1.99882     4.02197    0.01900     6.03978
      C   17   -0.02655      1.99886     4.01030    0.01739     6.02655
      C   18    0.14152      1.99902     3.83807    0.02139     5.85848
      C   19   -0.63442      1.99940     4.62740    0.00763     6.63442
      C   20   -0.41587      1.99936     4.40038    0.01613     6.41587
      C   21   -0.51498      1.99927     4.49863    0.01708     6.51498
      C   22    0.76052      1.99953     3.20520    0.03475     5.23948
      O   23   -0.58104      1.99978     6.55705    0.02421     8.58104
      O   24   -0.63210      1.99961     6.60165    0.03083     8.63210
      C   25    0.13406      1.99904     3.84611    0.02079     5.86594
      C   26    0.02726      1.99892     3.95586    0.01797     5.97274
      C   27   -0.15514      1.99882     4.13478    0.02154     6.15514
      C   28    0.17008      1.99900     3.81012    0.02080     5.82992
      C   29   -0.64257      1.99940     4.63567    0.00750     6.64257
      C   30   -0.17022      1.99926     4.15689    0.01407     6.17022
      C   31   -0.41977      1.99950     4.40870    0.01157     6.41977
      C   32    0.12916      1.99901     3.85140    0.02043     5.87084
      C   33    0.03031      1.99881     3.95299    0.01789     5.96969
      C   34   -0.14850      1.99880     4.12888    0.02081     6.14850
      C   35    0.17703      1.99908     3.80252    0.02138     5.82297
      C   36   -0.63544      1.99938     4.62828    0.00778     6.63544
      C   37   -0.17469      1.99926     4.16152    0.01391     6.17469
      C   38   -0.40938      1.99948     4.39880    0.01110     6.40938
      C   39    0.13966      1.99899     3.83972    0.02163     5.86034
      C   40   -0.03657      1.99883     4.01998    0.01776     6.03657
      C   41   -0.03643      1.99886     4.01785    0.01972     6.03643
      C   42    0.14292      1.99906     3.83723    0.02079     5.85708
      C   43   -0.63674      1.99939     4.62994    0.00741     6.63674
      C   44   -0.43432      1.99936     4.42023    0.01473     6.43432
      C   45   -0.51412      1.99927     4.49757    0.01728     6.51412
      C   46    0.76261      1.99949     3.20270    0.03520     5.23739
      O   47   -0.56388      1.99979     6.54054    0.02355     8.56388
      O   48   -0.66090      1.99959     6.63111    0.03020     8.66090
      N   49   -0.35710      1.99936     5.30933    0.04841     7.35710
      N   50   -0.35141      1.99935     5.30530    0.04677     7.35141
      N   51   -0.34629      1.99936     5.30067    0.04626     7.34629
      N   52   -0.36649      1.99936     5.31980    0.04733     7.36649
     Fe   53   -0.11433     17.98949     8.07750    0.04733    26.11433
      H   54    0.49727      0.00000     0.50061    0.00212     0.50273
      H   55    0.22782      0.00000     0.77065    0.00153     0.77218
      H   56    0.21461      0.00000     0.78369    0.00170     0.78539
      H   57    0.22750      0.00000     0.77101    0.00149     0.77250
      H   58    0.23323      0.00000     0.76536    0.00140     0.76677
      H   59    0.19579      0.00000     0.80148    0.00272     0.80421
      H   60    0.22135      0.00000     0.77703    0.00162     0.77865
      H   61    0.23935      0.00000     0.75934    0.00131     0.76065
      H   62    0.24906      0.00000     0.74956    0.00138     0.75094
      H   63    0.50693      0.00000     0.49093    0.00214     0.49307
      H   64    0.21031      0.00000     0.78703    0.00266     0.78969
      H   65    0.21608      0.00000     0.78132    0.00260     0.78392
      H   66    0.21682      0.00000     0.78022    0.00296     0.78318
      H   67    0.21203      0.00000     0.78500    0.00298     0.78797
      H   68    0.22276      0.00000     0.77574    0.00150     0.77724
      H   69    0.21165      0.00000     0.78688    0.00146     0.78835
      H   70    0.22228      0.00000     0.77611    0.00161     0.77772
      H   71    0.21500      0.00000     0.78380    0.00120     0.78500
      H   72    0.21412      0.00000     0.78425    0.00163     0.78588
      H   73    0.22642      0.00000     0.77197    0.00161     0.77358
      H   74    0.23255      0.00000     0.76587    0.00158     0.76745
      H   75    0.21713      0.00000     0.78149    0.00139     0.78287
      H   76    0.21974      0.00000     0.77832    0.00194     0.78026
      H   77    0.22023      0.00000     0.77813    0.00164     0.77977
      H   78    0.22493      0.00000     0.77365    0.00142     0.77507
      H   79    0.22179      0.00000     0.77661    0.00160     0.77821
      H   80    0.17605      0.00000     0.82221    0.00174     0.82395
      H   81    0.19945      0.00000     0.79928    0.00127     0.80055
      H   82    0.19981      0.00000     0.79837    0.00182     0.80019
      H   83    0.19805      0.00000     0.80065    0.00130     0.80195
      H   84    0.18929      0.00000     0.80901    0.00170     0.81071
      H   85    0.19632      0.00000     0.80188    0.00181     0.80368
      H   86    0.22575      0.00000     0.77230    0.00195     0.77425
      H   87    0.24170      0.00000     0.75740    0.00090     0.75830
      H   88    0.22123      0.00000     0.77724    0.00153     0.77877
      H   89    0.21735      0.00000     0.78108    0.00157     0.78265
      H   90    0.21442      0.00000     0.78428    0.00130     0.78558
      H   91    0.21497      0.00000     0.78316    0.00187     0.78503
      H   92    0.21506      0.00000     0.78284    0.00210     0.78494
      H   93    0.22812      0.00000     0.76936    0.00252     0.77188
      H   94    0.23123      0.00000     0.76754    0.00123     0.76877
      H   95    0.21244      0.00000     0.78634    0.00122     0.78756
      H   96    0.23184      0.00000     0.76692    0.00124     0.76816
      H   97    0.23423      0.00000     0.76416    0.00162     0.76577
      H   98    0.22143      0.00000     0.77661    0.00196     0.77857
      H   99    0.41121      0.00000     0.58703    0.00176     0.58879
 =======================================================================
   * Total *   -0.00000    129.94780   276.79589    1.25631   408.00000

 Normal termination of Gaussian 16 at Tue Nov  8 20:26:49 2022.
