 Gaussian 16, Revision A.03,

 ----------------------------------------------------------------------
 # PBE1PBE/def2TZVP empiricaldispersion=GD3BJ int=(grid=ultrafine) pola
 r
 ----------------------------------------------------------------------

 ---------
 6xcx_II_S
 ---------
 Symbolic Z-matrix:
 Charge =  0 Multiplicity = 1

 SCF Done:  E(RPBE1PBE) =  -3535.06804236     A.U. after   28 cycles

  Exact polarizability: 791.441  27.380 724.597 -53.767  -5.515 328.047
 Approx polarizability:1342.321  50.2681331.293-129.987 -12.953 561.019

 Normal termination of Gaussian 16 at Sat Jan 28 18:20:45 2023.
 Gaussian 16:  ES64L-G16RevA.03 25-Dec-2016

 ----------------------------------------------------------------------
 # PBE1PBE/def2TZVP empiricaldispersion=GD3BJ int=(grid=ultrafine) geom
 =check guess=read pop=nbo scf=qc
 ----------------------------------------------------------------------

 -------------
 6xcx_II_S_nbo
 -------------
 Structure from the checkpoint file:  "6xcx_II_S.chk"
 Charge =  0 Multiplicity = 1

                         Standard orientation:
 ---------------------------------------------------------------------
 Center     Atomic      Atomic             Coordinates (Angstroms)
 Number     Number       Type             X           Y           Z
 ---------------------------------------------------------------------
      1         26           0        1.017703   -0.050158    0.309016
      2          6           0       -2.371938    0.104599    0.517352
      3          6           0        0.793846   -3.571069    0.384597
      4          6           0        4.314184   -0.382362   -0.714685
      5          6           0        1.279219    3.290341    0.141297
      6          7           0       -0.423572   -1.430029    0.479609
      7          6           0       -1.777532   -1.131142    0.455966
      8          6           0       -2.530140   -2.323041    0.368557
      9          6           0       -1.651954   -3.352724    0.333885
     10          6           0       -0.351946   -2.805702    0.397887
     11          6           0       -1.994620   -4.819788    0.241794
     12          6           0       -4.034875   -2.446607    0.337722
     13          6           0       -4.527607   -2.670787   -1.092601
     14          6           0       -5.920117   -3.253972   -1.099335
     15          8           0       -6.532357   -3.343011   -2.185414
     16          8           0       -6.461508   -3.657990   -0.040072
     17          7           0        2.282867   -1.685161   -0.103938
     18          6           0        2.009368   -2.990861    0.022583
     19          6           0        3.153036   -3.776311   -0.299269
     20          6           0        4.159769   -2.917485   -0.604917
     21          6           0        3.581023   -1.550265   -0.461336
     22          6           0        3.261031   -5.281870   -0.307315
     23          6           0        5.528214   -3.321339   -1.009402
     24          6           0        6.614256   -2.637312   -0.637093
     25          7           0        2.578036    1.239890   -0.168782
     26          6           0        3.806023    0.911870   -0.643819
     27          6           0        4.469262    2.093848   -1.026368
     28          6           0        3.605311    3.163691   -0.777317
     29          6           0        2.403318    2.597220   -0.246655
     30          6           0        5.863967    2.143661   -1.596448
     31          6           0        3.852861    4.604333   -1.021750
     32          6           0        5.008709    5.206641   -0.743908
     33          7           0       -0.261835    1.337842    0.295382
     34          6           0        0.032461    2.653742    0.265575
     35          6           0       -1.199391    3.454899    0.322931
     36          6           0       -2.216202    2.580755    0.428078
     37          6           0       -1.600241    1.245295    0.421066
     38          6           0       -1.275563    4.960448    0.281618
     39          6           0       -3.695445    2.892999    0.521153
     40          6           0       -4.249544    3.379652   -0.825550
     41          6           0       -5.758791    3.502548   -0.783024
     42          8           0       -6.451307    3.100759   -1.745672
     43          8           0       -6.327380    4.015680    0.206645
     44          6           0        0.272954    0.801046    3.532610
     45         16           0        1.692498   -0.076330    2.870374
     46          1           0       -6.730953    4.270261    0.710270
     47          1           0       -7.382016   -3.869641   -0.211738
     48          1           0        5.921504    2.919492   -2.331074
     49          1           0        6.563210    2.343167   -0.811492
     50          1           0        6.097100    1.203679   -2.051401
     51          1           0        5.005453    6.193164   -1.158228
     52          1           0        5.134067    5.265800    0.317075
     53          1           0        3.063166    5.190822   -1.442835
     54          1           0        7.270085   -2.525612   -1.475133
     55          1           0        6.322689   -1.671303   -0.281121
     56          1           0        5.650295   -4.190930   -1.620801
     57          1           0        2.864598   -5.672778    0.606431
     58          1           0        4.288617   -5.565251   -0.400383
     59          1           0        2.706432   -5.674824   -1.133697
     60          1           0       -1.327979   -5.299392   -0.444114
     61          1           0       -3.001425   -4.929911   -0.103339
     62          1           0       -1.897376   -5.270076    1.207550
     63          1           0       -4.348653   -1.872519   -1.782270
     64          1           0       -3.827183   -3.117849   -1.766725
     65          1           0       -4.580117   -1.733055    0.919492
     66          1           0       -4.474224   -3.065588    1.091866
     67          1           0       -3.841307    2.912323   -1.697242
     68          1           0       -3.725323    4.193042   -1.282155
     69          1           0       -4.293480    2.173493    1.040350
     70          1           0       -4.002631    3.449589    1.381818
     71          1           0       -2.299692    5.264200    0.220026
     72          1           0       -0.744476    5.321085   -0.574413
     73          1           0       -0.836566    5.364291    1.169927
     74          1           0       -0.463570    0.095346    3.855749
     75          1           0        0.580396    1.401331    4.363295
     76          1           0        2.728260   -0.716501    2.387177
     77          1           0        0.751187   -4.606501    0.650979
     78          1           0       -3.431977    0.183691    0.639667
     79          1           0        1.356254    4.336391    0.352824
     80          1           0        5.343853   -0.494395   -0.983259
     81          1           0       -0.143966    1.429350    2.773459
 ---------------------------------------------------------------------

 SCF Done:  E(RPBE1PBE) =  -3535.06804236     a.u. after    1 cycles

 The electronic state is 1-A.
 Alpha  occ. eigenvalues -- -256.33738 -89.02140 -30.10262 -25.93203 -25.92706
 Alpha  occ. eigenvalues --  -25.92660 -19.27520 -19.24221 -19.17397 -19.17140
 Alpha  occ. eigenvalues --  -14.39675 -14.38825 -14.38498 -14.37848 -10.37658
 Alpha  occ. eigenvalues --  -10.35484 -10.30138 -10.26450 -10.26190 -10.25951
 Alpha  occ. eigenvalues --  -10.25340 -10.25069 -10.25058 -10.24976 -10.24919
 Alpha  occ. eigenvalues --  -10.24548 -10.24496 -10.24151 -10.23865 -10.23833
 Alpha  occ. eigenvalues --  -10.23543 -10.23430 -10.23267 -10.23249 -10.23244
 Alpha  occ. eigenvalues --  -10.23147 -10.23108 -10.22918 -10.22828 -10.22823
 Alpha  occ. eigenvalues --  -10.22528 -10.22355 -10.22262 -10.22179 -10.21796
 Alpha  occ. eigenvalues --  -10.21495 -10.20608 -10.20114 -10.19849  -8.00593
 Alpha  occ. eigenvalues --   -5.94336  -5.93798  -5.93560  -3.45375  -2.21746
 Alpha  occ. eigenvalues --   -2.20602  -2.20398  -1.21020  -1.18270  -1.03801
 Alpha  occ. eigenvalues --   -1.02043  -1.00352  -0.99554  -0.98211  -0.97677
 Alpha  occ. eigenvalues --   -0.86112  -0.85148  -0.84594  -0.83832  -0.83471
 Alpha  occ. eigenvalues --   -0.83133  -0.83072  -0.82316  -0.82229  -0.80133
 Alpha  occ. eigenvalues --   -0.79632  -0.78584  -0.77909  -0.76799  -0.75037
 Alpha  occ. eigenvalues --   -0.73744  -0.72482  -0.71787  -0.70366  -0.70218
 Alpha  occ. eigenvalues --   -0.69987  -0.69723  -0.67878  -0.66984  -0.66625
 Alpha  occ. eigenvalues --   -0.62199  -0.61517  -0.59915  -0.59677  -0.58322
 Alpha  occ. eigenvalues --   -0.56895  -0.56299  -0.55202  -0.54664  -0.53459
 Alpha  occ. eigenvalues --   -0.52986  -0.52591  -0.52422  -0.51131  -0.50528
 Alpha  occ. eigenvalues --   -0.50219  -0.49975  -0.49701  -0.49451  -0.49316
 Alpha  occ. eigenvalues --   -0.48997  -0.48586  -0.48033  -0.47831  -0.47244
 Alpha  occ. eigenvalues --   -0.46643  -0.46568  -0.46315  -0.45797  -0.45523
 Alpha  occ. eigenvalues --   -0.45042  -0.44660  -0.44593  -0.44402  -0.44054
 Alpha  occ. eigenvalues --   -0.43416  -0.42940  -0.42756  -0.42587  -0.42339
 Alpha  occ. eigenvalues --   -0.41992  -0.41666  -0.41155  -0.40829  -0.40761
 Alpha  occ. eigenvalues --   -0.40459  -0.40396  -0.40243  -0.39801  -0.39355
 Alpha  occ. eigenvalues --   -0.39114  -0.38390  -0.38048  -0.37471  -0.37099
 Alpha  occ. eigenvalues --   -0.36864  -0.36628  -0.35893  -0.35090  -0.34653
 Alpha  occ. eigenvalues --   -0.33871  -0.33424  -0.32967  -0.31966  -0.31627
 Alpha  occ. eigenvalues --   -0.31596  -0.30674  -0.29928  -0.29578  -0.28964
 Alpha  occ. eigenvalues --   -0.28595  -0.28426  -0.28181  -0.27505  -0.26949
 Alpha  occ. eigenvalues --   -0.26297  -0.25233  -0.24789  -0.23223  -0.22787
 Alpha  occ. eigenvalues --   -0.21585  -0.20939  -0.20798  -0.19924
 Alpha virt. eigenvalues --   -0.10934  -0.08958  -0.08207  -0.05157  -0.04476
 Alpha virt. eigenvalues --   -0.02728  -0.00519   0.00161   0.00751   0.01891
 Alpha virt. eigenvalues --    0.02688   0.03117   0.03553   0.04209   0.04649

 Mulliken charges:
               1
     1  Fe  -0.010168
     2  C   -0.512911
     3  C   -0.465162
     4  C   -0.440152
     5  C   -0.464434
     6  N   -0.102775
     7  C    0.337933
     8  C   -0.069582
     9  C    0.003507
    10  C    0.219429
    11  C   -0.413314
    12  C   -0.350724
    13  C   -0.222234
    14  C    0.318093
    15  O   -0.396357
    16  O   -0.330037
    17  N   -0.145532
    18  C    0.280219
    19  C   -0.061983
    20  C    0.086453
    21  C    0.204761
    22  C   -0.393004
    23  C   -0.216916
    24  C   -0.269092
    25  N   -0.107786
    26  C    0.285405
    27  C   -0.097382
    28  C    0.057473
    29  C    0.258847
    30  C   -0.343930
    31  C   -0.270134
    32  C   -0.315631
    33  N   -0.093412
    34  C    0.192329
    35  C    0.054333
    36  C   -0.049595
    37  C    0.346961
    38  C   -0.413291
    39  C   -0.373517
    40  C   -0.205960
    41  C    0.376649
    42  O   -0.357463
    43  O   -0.189905
    44  C   -0.233137
    45  S   -0.372772
    46  H    0.128842
    47  H    0.341623
    48  H    0.144701
    49  H    0.143312
    50  H    0.124788
    51  H    0.107328
    52  H    0.141571
    53  H    0.129361
    54  H    0.113702
    55  H    0.096886
    56  H    0.128997
    57  H    0.133409
    58  H    0.134250
    59  H    0.146835
    60  H    0.141410
    61  H    0.146254
    62  H    0.137655
    63  H    0.147000
    64  H    0.150128
    65  H    0.102172
    66  H    0.144674
    67  H    0.146833
    68  H    0.124027
    69  H    0.108682
    70  H    0.113358
    71  H    0.140272
    72  H    0.150689
    73  H    0.138728
    74  H    0.163521
    75  H    0.170748
    76  H    0.323066
    77  H    0.145847
    78  H    0.127723
    79  H    0.153490
    80  H    0.102317
    81  H    0.171697
 Sum of Mulliken charges =   0.00000

 Dipole moment (field-independent basis, Debye):
    X=             -1.2927    Y=              1.2725    Z=              6.9644  Tot=              7.1967
 Quadrupole moment (field-independent basis, Debye-Ang):
   XX=           -305.2345   YY=           -249.4267   ZZ=           -278.9122
   XY=            -10.2043   XZ=            -46.2152   YZ=              7.6450

 Summary of Natural Population Analysis:

                                       Natural Population
                Natural  -----------------------------------------------
    Atom  No    Charge         Core      Valence    Rydberg      Total
 -----------------------------------------------------------------------
     Fe    1    0.52628     17.99018     7.45488    0.02865    25.47372
      C    2   -0.23633      1.99892     4.22107    0.01634     6.23633
      C    3   -0.20909      1.99898     4.19385    0.01626     6.20909
      C    4   -0.21704      1.99900     4.20164    0.01640     6.21704
      C    5   -0.23413      1.99898     4.21875    0.01640     6.23413
      N    6   -0.44005      1.99936     5.39780    0.04289     7.44005
      C    7    0.13981      1.99895     3.84036    0.02088     5.86019
      C    8   -0.04188      1.99882     4.02247    0.02058     6.04188
      C    9   -0.01721      1.99882     4.00143    0.01696     6.01721
      C   10    0.13906      1.99898     3.84087    0.02109     5.86094
      C   11   -0.64136      1.99940     4.63423    0.00773     6.64136
      C   12   -0.47364      1.99928     4.45747    0.01689     6.47364
      C   13   -0.54362      1.99917     4.52521    0.01925     6.54362
      C   14    0.76051      1.99955     3.20315    0.03679     5.23949
      O   15   -0.62635      1.99979     6.60188    0.02469     8.62635
      O   16   -0.63852      1.99966     6.61014    0.02873     8.63852
      N   17   -0.44664      1.99932     5.39961    0.04772     7.44664
      C   18    0.13650      1.99904     3.84220    0.02225     5.86350
      C   19    0.00587      1.99887     3.97831    0.01695     5.99413
      C   20   -0.10679      1.99886     4.08664    0.02129     6.10679
      C   21    0.16162      1.99913     3.81752    0.02172     5.83838
      C   22   -0.63997      1.99940     4.63306    0.00750     6.63997
      C   23   -0.13617      1.99918     4.11798    0.01901     6.13617
      C   24   -0.44824      1.99884     4.42721    0.02219     6.44824
      N   25   -0.43355      1.99936     5.38867    0.04553     7.43355
      C   26    0.11723      1.99900     3.86242    0.02134     5.88277
      C   27    0.02636      1.99896     3.95701    0.01767     5.97364
      C   28   -0.11970      1.99894     4.09840    0.02236     6.11970
      C   29    0.15639      1.99905     3.82443    0.02013     5.84361
      C   30   -0.64236      1.99940     4.63007    0.01289     6.64236
      C   31   -0.11593      1.99919     4.09738    0.01937     6.11593
      C   32   -0.48777      1.99879     4.46394    0.02505     6.48777
      N   33   -0.45004      1.99926     5.40672    0.04406     7.45004
      C   34    0.15343      1.99912     3.82606    0.02139     5.84657
      C   35   -0.01918      1.99885     4.00377    0.01656     6.01918
      C   36   -0.04595      1.99883     4.02715    0.01997     6.04595
      C   37    0.15269      1.99907     3.82612    0.02211     5.84731
      C   38   -0.64670      1.99939     4.63938    0.00793     6.64670
      C   39   -0.46213      1.99925     4.44677    0.01611     6.46213
      C   40   -0.53436      1.99917     4.51687    0.01832     6.53436
      C   41    0.76566      1.99947     3.20312    0.03175     5.23434
      O   42   -0.57979      1.99979     6.55588    0.02413     8.57979
      O   43   -0.60487      1.99946     6.58960    0.01581     8.60487
      C   44   -0.55539      1.99915     4.54392    0.01232     6.55539
      S   45   -0.23309      9.99886     6.21146    0.02277    16.23309
      H   46    0.44130      0.00000     0.55557    0.00313     0.55870
      H   47    0.50916      0.00000     0.48726    0.00358     0.49084
      H   48    0.23615      0.00000     0.76233    0.00152     0.76385
      H   49    0.22875      0.00000     0.76991    0.00133     0.77125
      H   50    0.21150      0.00000     0.78733    0.00117     0.78850
      H   51    0.17943      0.00000     0.81900    0.00157     0.82057
      H   52    0.22431      0.00000     0.77288    0.00280     0.77569
      H   53    0.19642      0.00000     0.80109    0.00248     0.80358
      H   54    0.20514      0.00000     0.79287    0.00199     0.79486
      H   55    0.17714      0.00000     0.82076    0.00210     0.82286
      H   56    0.20057      0.00000     0.79757    0.00185     0.79943
      H   57    0.22089      0.00000     0.77770    0.00141     0.77911
      H   58    0.22512      0.00000     0.77338    0.00150     0.77488
      H   59    0.22407      0.00000     0.77435    0.00158     0.77593
      H   60    0.22125      0.00000     0.77727    0.00148     0.77875
      H   61    0.22561      0.00000     0.77297    0.00142     0.77439
      H   62    0.22129      0.00000     0.77709    0.00162     0.77871
      H   63    0.27060      0.00000     0.72788    0.00152     0.72940
      H   64    0.27226      0.00000     0.72646    0.00129     0.72774
      H   65    0.22784      0.00000     0.77018    0.00198     0.77216
      H   66    0.24832      0.00000     0.75010    0.00158     0.75168
      H   67    0.26154      0.00000     0.73699    0.00147     0.73846
      H   68    0.25301      0.00000     0.74548    0.00151     0.74699
      H   69    0.22928      0.00000     0.76871    0.00202     0.77072
      H   70    0.23003      0.00000     0.76735    0.00262     0.76997
      H   71    0.22355      0.00000     0.77488    0.00157     0.77645
      H   72    0.22483      0.00000     0.77362    0.00156     0.77517
      H   73    0.22284      0.00000     0.77562    0.00154     0.77716
      H   74    0.23199      0.00000     0.76622    0.00179     0.76801
      H   75    0.22859      0.00000     0.76973    0.00168     0.77141
      H   76    0.36010      0.00000     0.63440    0.00549     0.63990
      H   77    0.22505      0.00000     0.77268    0.00227     0.77495
      H   78    0.23064      0.00000     0.76736    0.00200     0.76936
      H   79    0.22612      0.00000     0.77182    0.00206     0.77388
      H   80    0.22231      0.00000     0.77484    0.00285     0.77769
      H   81    0.24947      0.00000     0.74864    0.00189     0.75053
 =======================================================================
   * Total *    0.00000    113.95286   232.98918    1.05796   348.00000

 Normal termination of Gaussian 16 at Sat Jan 28 18:45:13 2023.
