 Gaussian 16, Revision A.03,
 Gaussian 16:  ES64L-G16RevA.03 25-Dec-2016

 ----------------------------------------------------------------------
 # PBE1PBE/def2TZVP empiricaldispersion=GD3BJ scf=maxcycle=999 geom=che
 ck pop=nbo
 ----------------------------------------------------------------------

 ----------
 6xcx_III_D
 ----------
 Structure from the checkpoint file:  "6xcx_III_D.chk"
 Charge =  1 Multiplicity = 2

                         Standard orientation:
 ---------------------------------------------------------------------
 Center     Atomic      Atomic             Coordinates (Angstroms)
 Number     Number       Type             X           Y           Z
 ---------------------------------------------------------------------
      1         26           0        1.017703   -0.050158    0.309016
      2          6           0       -2.371938    0.104599    0.517352
      3          6           0        0.793846   -3.571069    0.384597
      4          6           0        4.314184   -0.382362   -0.714685
      5          6           0        1.279219    3.290341    0.141297
      6          7           0       -0.423572   -1.430029    0.479609
      7          6           0       -1.777532   -1.131142    0.455966
      8          6           0       -2.530140   -2.323041    0.368557
      9          6           0       -1.651954   -3.352724    0.333885
     10          6           0       -0.351946   -2.805702    0.397887
     11          6           0       -1.994620   -4.819788    0.241794
     12          6           0       -4.034875   -2.446607    0.337722
     13          6           0       -4.527607   -2.670787   -1.092601
     14          6           0       -5.920117   -3.253972   -1.099335
     15          8           0       -6.532357   -3.343011   -2.185414
     16          8           0       -6.461508   -3.657990   -0.040072
     17          7           0        2.282867   -1.685161   -0.103938
     18          6           0        2.009368   -2.990861    0.022583
     19          6           0        3.153036   -3.776311   -0.299269
     20          6           0        4.159769   -2.917485   -0.604917
     21          6           0        3.581023   -1.550265   -0.461336
     22          6           0        3.261031   -5.281870   -0.307315
     23          6           0        5.528214   -3.321339   -1.009402
     24          6           0        6.614256   -2.637312   -0.637093
     25          7           0        2.578036    1.239890   -0.168782
     26          6           0        3.806023    0.911870   -0.643819
     27          6           0        4.469262    2.093848   -1.026368
     28          6           0        3.605311    3.163691   -0.777317
     29          6           0        2.403318    2.597220   -0.246655
     30          6           0        5.863967    2.143661   -1.596448
     31          6           0        3.852861    4.604333   -1.021750
     32          6           0        5.008709    5.206641   -0.743908
     33          7           0       -0.261835    1.337842    0.295382
     34          6           0        0.032461    2.653742    0.265575
     35          6           0       -1.199391    3.454899    0.322931
     36          6           0       -2.216202    2.580755    0.428078
     37          6           0       -1.600241    1.245295    0.421066
     38          6           0       -1.275563    4.960448    0.281618
     39          6           0       -3.695445    2.892999    0.521153
     40          6           0       -4.249544    3.379652   -0.825550
     41          6           0       -5.758791    3.502548   -0.783024
     42          8           0       -6.451307    3.100759   -1.745672
     43          8           0       -6.327380    4.015680    0.206645
     44          6           0        0.272954    0.801046    3.532610
     45         16           0        1.692498   -0.076330    2.870374
     46          1           0       -6.730953    4.270261    0.710270
     47          1           0       -7.382016   -3.869641   -0.211738
     48          1           0        5.921504    2.919492   -2.331074
     49          1           0        6.563210    2.343167   -0.811492
     50          1           0        6.097100    1.203679   -2.051401
     51          1           0        5.005453    6.193164   -1.158228
     52          1           0        5.134067    5.265800    0.317075
     53          1           0        3.063166    5.190822   -1.442835
     54          1           0        7.270085   -2.525612   -1.475133
     55          1           0        6.322689   -1.671303   -0.281121
     56          1           0        5.650295   -4.190930   -1.620801
     57          1           0        2.864598   -5.672778    0.606431
     58          1           0        4.288617   -5.565251   -0.400383
     59          1           0        2.706432   -5.674824   -1.133697
     60          1           0       -1.327979   -5.299392   -0.444114
     61          1           0       -3.001425   -4.929911   -0.103339
     62          1           0       -1.897376   -5.270076    1.207550
     63          1           0       -4.348653   -1.872519   -1.782270
     64          1           0       -3.827183   -3.117849   -1.766725
     65          1           0       -4.580117   -1.733055    0.919492
     66          1           0       -4.474224   -3.065588    1.091866
     67          1           0       -3.841307    2.912323   -1.697242
     68          1           0       -3.725323    4.193042   -1.282155
     69          1           0       -4.293480    2.173493    1.040350
     70          1           0       -4.002631    3.449589    1.381818
     71          1           0       -2.299692    5.264200    0.220026
     72          1           0       -0.744476    5.321085   -0.574413
     73          1           0       -0.836566    5.364291    1.169927
     74          1           0       -0.463570    0.095346    3.855749
     75          1           0        0.580396    1.401331    4.363295
     76          1           0        2.728260   -0.716501    2.387177
     77          1           0        0.751187   -4.606501    0.650979
     78          1           0       -3.431977    0.183691    0.639667
     79          1           0        1.356254    4.336391    0.352824
     80          1           0        5.343853   -0.494395   -0.983259
     81          1           0       -0.143966    1.429350    2.773459
 ---------------------------------------------------------------------

 SCF Done:  E(UPBE1PBE) =  -3534.84844426     A.U. after  164 cycles

 Alpha virt. eigenvalues --    0.24790   0.24995   0.25238   0.25398   0.25624
 Alpha virt. eigenvalues --    0.25816   0.26150   0.26465   0.26760   0.27302
 Alpha virt. eigenvalues --    0.27401   0.27635   0.27913   0.28087   0.28212

  Beta  occ. eigenvalues -- -256.52117 -89.16091 -30.28525 -26.11465 -26.11281
  Beta  occ. eigenvalues --  -26.10752 -19.34453 -19.31155 -19.24465 -19.24153
  Beta  occ. eigenvalues --  -14.52818 -14.51563 -14.51512 -14.51029 -10.44869
  Beta  occ. eigenvalues --  -10.42690 -10.41752 -10.38308 -10.38222 -10.37953
  Beta  occ. eigenvalues --  -10.37139 -10.37105 -10.37073 -10.37070 -10.36933
  Beta  occ. eigenvalues --  -10.35378 -10.35239 -10.35183 -10.34847 -10.34507
  Beta  occ. eigenvalues --  -10.34419 -10.33984 -10.33754 -10.33628 -10.33622
  Beta  occ. eigenvalues --  -10.33568 -10.33458 -10.33323 -10.33304 -10.33103
  Beta  occ. eigenvalues --  -10.32668 -10.32425 -10.32402 -10.31750 -10.31031
  Beta  occ. eigenvalues --  -10.30934 -10.30086 -10.29596 -10.29393  -8.14434
  Beta  occ. eigenvalues --   -6.08131  -6.07687  -6.07354  -3.62277  -2.38806
  Beta  occ. eigenvalues --   -2.37891  -2.35909  -1.27905  -1.25229  -1.12668
  Beta  occ. eigenvalues --   -1.11583  -1.10806  -1.10388  -1.09806  -1.09018
  Beta  occ. eigenvalues --   -0.96757  -0.95636  -0.95404  -0.94765  -0.94148
  Beta  occ. eigenvalues --   -0.94086  -0.93784  -0.93278  -0.91866  -0.89967
  Beta  occ. eigenvalues --   -0.89082  -0.88606  -0.88038  -0.87908  -0.85438
  Beta  occ. eigenvalues --   -0.83532  -0.82878  -0.82632  -0.81941  -0.80791
  Beta  occ. eigenvalues --   -0.79508  -0.79021  -0.78152  -0.77939  -0.75423
  Beta  occ. eigenvalues --   -0.72700  -0.71956  -0.71764  -0.70847  -0.68838
  Beta  occ. eigenvalues --   -0.67601  -0.66859  -0.65740  -0.65192  -0.64061
  Beta  occ. eigenvalues --   -0.63445  -0.63188  -0.62279  -0.61611  -0.60900
  Beta  occ. eigenvalues --   -0.60520  -0.60381  -0.60102  -0.59560  -0.59130
  Beta  occ. eigenvalues --   -0.58269  -0.58170  -0.57500  -0.57200  -0.57020
  Beta  occ. eigenvalues --   -0.56579  -0.56406  -0.56215  -0.56102  -0.55460
  Beta  occ. eigenvalues --   -0.55288  -0.55119  -0.54670  -0.54353  -0.53940
  Beta  occ. eigenvalues --   -0.53662  -0.53209  -0.53133  -0.53004  -0.52699
  Beta  occ. eigenvalues --   -0.52227  -0.51826  -0.51482  -0.51165  -0.50635
  Beta  occ. eigenvalues --   -0.50426  -0.50137  -0.50016  -0.49746  -0.49288
  Beta  occ. eigenvalues --   -0.48976  -0.48763  -0.48420  -0.48162  -0.47025
  Beta  occ. eigenvalues --   -0.46821  -0.46283  -0.45548  -0.45278  -0.44685
  Beta  occ. eigenvalues --   -0.44201  -0.44091  -0.43821  -0.42690  -0.42108
  Beta  occ. eigenvalues --   -0.41733  -0.41449  -0.40767  -0.40363  -0.40210
  Beta  occ. eigenvalues --   -0.39513  -0.39164  -0.38944  -0.38362  -0.37662
  Beta  occ. eigenvalues --   -0.36484  -0.36255  -0.34742  -0.34424  -0.34080
  Beta  occ. eigenvalues --   -0.33109  -0.32462  -0.31297
  Beta virt. eigenvalues --   -0.26937  -0.22559  -0.21281  -0.19493  -0.17816
  Beta virt. eigenvalues --   -0.14611  -0.13989  -0.12390  -0.10622  -0.07856
  Beta virt. eigenvalues --   -0.07243  -0.06795  -0.06462  -0.05398  -0.05265

 Mulliken charges and spin densities:
               1          2
     1  Fe  -0.015626   0.560271
     2  C   -0.492148   0.082724
     3  C   -0.427166   0.107795
     4  C   -0.427251   0.095307
     5  C   -0.430773   0.101090
     6  N   -0.095493   0.038968
     7  C    0.354724  -0.015581
     8  C   -0.063284  -0.001240
     9  C    0.008047   0.017552
    10  C    0.227075  -0.031861
    11  C   -0.400615  -0.001334
    12  C   -0.349656   0.000656
    13  C   -0.228904   0.000008
    14  C    0.315577  -0.000033
    15  O   -0.378022   0.000126
    16  O   -0.331086  -0.000003
    17  N   -0.136333   0.042791
    18  C    0.292825  -0.029873
    19  C   -0.065305   0.005586
    20  C    0.088351  -0.005946
    21  C    0.218984  -0.025872
    22  C   -0.380943  -0.000453
    23  C   -0.212421   0.004308
    24  C   -0.245881  -0.005001
    25  N   -0.099369   0.059135
    26  C    0.306500  -0.020961
    27  C   -0.099306  -0.004308
    28  C    0.070227   0.007089
    29  C    0.269823  -0.035168
    30  C   -0.339024   0.000559
    31  C   -0.270603  -0.009659
    32  C   -0.298498   0.011684
    33  N   -0.069934   0.051818
    34  C    0.192590  -0.035565
    35  C    0.063113   0.002221
    36  C   -0.051733  -0.009758
    37  C    0.351259  -0.024519
    38  C   -0.401906   0.000210
    39  C   -0.374859   0.001189
    40  C   -0.213362  -0.000585
    41  C    0.376333  -0.000051
    42  O   -0.341731  -0.000105
    43  O   -0.186005  -0.000009
    44  C   -0.233837  -0.007442
    45  S   -0.257582   0.092930
    46  H    0.134230  -0.000007
    47  H    0.353676  -0.000008
    48  H    0.161765  -0.000191
    49  H    0.160156  -0.000276
    50  H    0.131982   0.000037
    51  H    0.132048  -0.000459
    52  H    0.156155  -0.000810
    53  H    0.147919   0.001191
    54  H    0.136177   0.000169
    55  H    0.090044   0.000081
    56  H    0.151507  -0.000122
    57  H    0.142234   0.000229
    58  H    0.150031   0.000017
    59  H    0.162103   0.000252
    60  H    0.151645   0.000598
    61  H    0.163849   0.000170
    62  H    0.154016   0.000937
    63  H    0.151821   0.000052
    64  H    0.152872   0.000048
    65  H    0.110978  -0.000044
    66  H    0.162691  -0.000072
    67  H    0.148443   0.000048
    68  H    0.134633   0.000045
    69  H    0.116596   0.000020
    70  H    0.132169  -0.000469
    71  H    0.158119   0.000074
    72  H    0.161642  -0.000023
    73  H    0.150406  -0.000018
    74  H    0.182366  -0.000439
    75  H    0.198221   0.001959
    76  H    0.336472  -0.005891
    77  H    0.173601  -0.004957
    78  H    0.151924  -0.003769
    79  H    0.180800  -0.004610
    80  H    0.123805  -0.004119
    81  H    0.176129   0.001667
 Sum of Mulliken charges =   1.00000   1.00000

 Dipole moment (field-independent basis, Debye):
    X=              3.7613    Y=              1.4485    Z=              8.6730  Tot=              9.5638
 Quadrupole moment (field-independent basis, Debye-Ang):
   XX=           -235.7780   YY=           -194.1845   ZZ=           -262.2260
   XY=             -6.8479   XZ=            -48.7768   YZ=              6.9465

 Summary of Natural Population Analysis:

                                       Natural Population
                Natural  -----------------------------------------------
    Atom  No    Charge         Core      Valence    Rydberg      Total
 -----------------------------------------------------------------------
     Fe    1    0.59201      8.99560     3.39786    0.01454    12.40799
      C    2   -0.06019      0.99946     2.05264    0.00809     3.06019
      C    3   -0.03130      0.99949     2.02410    0.00771     3.03130
      C    4   -0.04427      0.99950     2.03675    0.00803     3.04427
      C    5   -0.05117      0.99949     2.04388    0.00780     3.05117
      N    6   -0.19336      0.99967     2.67226    0.02143     3.69336
      C    7    0.06956      0.99947     1.92048    0.01049     2.93044
      C    8   -0.01088      0.99942     2.00129    0.01017     3.01088
      C    9    0.01343      0.99942     1.97880    0.00835     2.98657
      C   10    0.05614      0.99949     1.93427    0.01010     2.94386
      C   11   -0.32350      0.99970     2.31751    0.00629     3.32350
      C   12   -0.24094      0.99964     2.23310    0.00820     3.24094
      C   13   -0.27088      0.99958     2.26177    0.00953     3.27088
      C   14    0.37743      0.99977     1.60455    0.01825     2.62257
      O   15   -0.30381      0.99990     3.29156    0.01236     4.30381
      O   16   -0.31954      0.99983     3.30549    0.01422     4.31954
      N   17   -0.19935      0.99965     2.67505    0.02465     3.69935
      C   18    0.05522      0.99952     1.93432    0.01093     2.94478
      C   19    0.01210      0.99944     1.98026    0.00821     2.98790
      C   20   -0.04513      0.99943     2.03551    0.01019     3.04513
      C   21    0.07262      0.99956     1.91675    0.01106     2.92738
      C   22   -0.32183      0.99970     2.31599    0.00614     3.32183
      C   23   -0.07343      0.99958     2.06463    0.00921     3.07343
      C   24   -0.20661      0.99941     2.19653    0.01067     3.20661
      N   25   -0.17632      0.99966     2.65442    0.02225     3.67632
      C   26    0.05389      0.99950     1.93588    0.01072     2.94611
      C   27    0.01383      0.99948     1.97810    0.00858     2.98617
      C   28   -0.04191      0.99947     2.03169    0.01075     3.04191
      C   29    0.06374      0.99952     1.92680    0.00994     2.93626
      C   30   -0.32161      0.99970     2.31552    0.00640     3.32161
      C   31   -0.07415      0.99959     2.06522    0.00934     3.07415
      C   32   -0.21372      0.99938     2.20248    0.01186     3.21372
      N   33   -0.19573      0.99961     2.67289    0.02323     3.69573
      C   34    0.05995      0.99956     1.93007    0.01043     2.94005
      C   35    0.00064      0.99943     1.99184    0.00810     2.99936
      C   36   -0.01575      0.99942     2.00664    0.00969     3.01575
      C   37    0.06787      0.99953     1.92134    0.01125     2.93213
      C   38   -0.32543      0.99969     2.31926    0.00647     3.32543
      C   39   -0.23498      0.99962     2.22746    0.00789     3.23498
      C   40   -0.26669      0.99958     2.25798    0.00912     3.26669
      C   41    0.38016      0.99974     1.60429    0.01581     2.61984
      O   42   -0.28154      0.99990     3.26951    0.01214     4.28154
      O   43   -0.30015      0.99973     3.29260    0.00783     4.30015
      C   44   -0.28619      0.99958     2.28026    0.00635     3.28619
      S   45   -0.00248      4.99933     2.99137    0.01177     8.00248
      H   46    0.22181      0.00000     0.27665    0.00154     0.27819
      H   47    0.25847      0.00000     0.23995    0.00159     0.24153
      H   48    0.12352      0.00000     0.37580    0.00068     0.37648
      H   49    0.11934      0.00000     0.38006    0.00060     0.38066
      H   50    0.10819      0.00000     0.39128    0.00053     0.39181
      H   51    0.09627      0.00000     0.40306    0.00066     0.40373
      H   52    0.11474      0.00000     0.38395    0.00131     0.38526
      H   53    0.10489      0.00000     0.39401    0.00109     0.39511
      H   54    0.10877      0.00000     0.39034    0.00089     0.39123
      H   55    0.08440      0.00000     0.41462    0.00099     0.41560
      H   56    0.10727      0.00000     0.39189    0.00085     0.39273
      H   57    0.11402      0.00000     0.38545    0.00053     0.38598
      H   58    0.11845      0.00000     0.38098    0.00057     0.38155
      H   59    0.11731      0.00000     0.38208    0.00062     0.38269
      H   60    0.11456      0.00000     0.38491    0.00053     0.38544
      H   61    0.11960      0.00000     0.37986    0.00054     0.38040
      H   62    0.11728      0.00000     0.38209    0.00063     0.38272
      H   63    0.13531      0.00000     0.36396    0.00073     0.36469
      H   64    0.13558      0.00000     0.36380    0.00063     0.36442
      H   65    0.11712      0.00000     0.38193    0.00095     0.38288
      H   66    0.13063      0.00000     0.36860    0.00077     0.36937
      H   67    0.13058      0.00000     0.36870    0.00072     0.36942
      H   68    0.12749      0.00000     0.37179    0.00072     0.37251
      H   69    0.11721      0.00000     0.38184    0.00096     0.38279
      H   70    0.12114      0.00000     0.37762    0.00125     0.37886
      H   71    0.11865      0.00000     0.38074    0.00061     0.38135
      H   72    0.11625      0.00000     0.38317    0.00058     0.38375
      H   73    0.11600      0.00000     0.38339    0.00062     0.38400
      H   74    0.12232      0.00000     0.37686    0.00082     0.37768
      H   75    0.12570      0.00000     0.37356    0.00074     0.37430
      H   76    0.17519      0.00000     0.32190    0.00291     0.32481
      H   77    0.11894      0.00000     0.37999    0.00107     0.38106
      H   78    0.12266      0.00000     0.37634    0.00100     0.37734
      H   79    0.11943      0.00000     0.37961    0.00096     0.38057
      H   80    0.11734      0.00000     0.38125    0.00142     0.38266
      H   81    0.12781      0.00000     0.37124    0.00095     0.37219
 =======================================================================
   * Total *    1.00000     56.97674   115.49421    0.52905   173.00000

 Normal termination of Gaussian 16 at Sat Feb  4 17:40:32 2023.
