 Gaussian 16, Revision A.03,
 Gaussian 16:  ES64L-G16RevA.03 25-Dec-2016

 ----------------------------------------------------------------------
 # PBE1PBE/def2TZVP empiricaldispersion=GD3BJ scf=maxcycle=999 geom=che
 ck pop=nbo
 ----------------------------------------------------------------------

 ---------
 6xcx_II_Q
 ---------
 Structure from the checkpoint file:  "6xcx_II_Q.chk"
 Charge =  0 Multiplicity = 5

                         Standard orientation:
 ---------------------------------------------------------------------
 Center     Atomic      Atomic             Coordinates (Angstroms)
 Number     Number       Type             X           Y           Z
 ---------------------------------------------------------------------
      1         26           0        1.017703   -0.050158    0.309016
      2          6           0       -2.371938    0.104599    0.517352
      3          6           0        0.793846   -3.571069    0.384597
      4          6           0        4.314184   -0.382362   -0.714685
      5          6           0        1.279219    3.290341    0.141297
      6          7           0       -0.423572   -1.430029    0.479609
      7          6           0       -1.777532   -1.131142    0.455966
      8          6           0       -2.530140   -2.323041    0.368557
      9          6           0       -1.651954   -3.352724    0.333885
     10          6           0       -0.351946   -2.805702    0.397887
     11          6           0       -1.994620   -4.819788    0.241794
     12          6           0       -4.034875   -2.446607    0.337722
     13          6           0       -4.527607   -2.670787   -1.092601
     14          6           0       -5.920117   -3.253972   -1.099335
     15          8           0       -6.532357   -3.343011   -2.185414
     16          8           0       -6.461508   -3.657990   -0.040072
     17          7           0        2.282867   -1.685161   -0.103938
     18          6           0        2.009368   -2.990861    0.022583
     19          6           0        3.153036   -3.776311   -0.299269
     20          6           0        4.159769   -2.917485   -0.604917
     21          6           0        3.581023   -1.550265   -0.461336
     22          6           0        3.261031   -5.281870   -0.307315
     23          6           0        5.528214   -3.321339   -1.009402
     24          6           0        6.614256   -2.637312   -0.637093
     25          7           0        2.578036    1.239890   -0.168782
     26          6           0        3.806023    0.911870   -0.643819
     27          6           0        4.469262    2.093848   -1.026368
     28          6           0        3.605311    3.163691   -0.777317
     29          6           0        2.403318    2.597220   -0.246655
     30          6           0        5.863967    2.143661   -1.596448
     31          6           0        3.852861    4.604333   -1.021750
     32          6           0        5.008709    5.206641   -0.743908
     33          7           0       -0.261835    1.337842    0.295382
     34          6           0        0.032461    2.653742    0.265575
     35          6           0       -1.199391    3.454899    0.322931
     36          6           0       -2.216202    2.580755    0.428078
     37          6           0       -1.600241    1.245295    0.421066
     38          6           0       -1.275563    4.960448    0.281618
     39          6           0       -3.695445    2.892999    0.521153
     40          6           0       -4.249544    3.379652   -0.825550
     41          6           0       -5.758791    3.502548   -0.783024
     42          8           0       -6.451307    3.100759   -1.745672
     43          8           0       -6.327380    4.015680    0.206645
     44          6           0        0.272954    0.801046    3.532610
     45         16           0        1.692498   -0.076330    2.870374
     46          1           0       -6.730953    4.270261    0.710270
     47          1           0       -7.382016   -3.869641   -0.211738
     48          1           0        5.921504    2.919492   -2.331074
     49          1           0        6.563210    2.343167   -0.811492
     50          1           0        6.097100    1.203679   -2.051401
     51          1           0        5.005453    6.193164   -1.158228
     52          1           0        5.134067    5.265800    0.317075
     53          1           0        3.063166    5.190822   -1.442835
     54          1           0        7.270085   -2.525612   -1.475133
     55          1           0        6.322689   -1.671303   -0.281121
     56          1           0        5.650295   -4.190930   -1.620801
     57          1           0        2.864598   -5.672778    0.606431
     58          1           0        4.288617   -5.565251   -0.400383
     59          1           0        2.706432   -5.674824   -1.133697
     60          1           0       -1.327979   -5.299392   -0.444114
     61          1           0       -3.001425   -4.929911   -0.103339
     62          1           0       -1.897376   -5.270076    1.207550
     63          1           0       -4.348653   -1.872519   -1.782270
     64          1           0       -3.827183   -3.117849   -1.766725
     65          1           0       -4.580117   -1.733055    0.919492
     66          1           0       -4.474224   -3.065588    1.091866
     67          1           0       -3.841307    2.912323   -1.697242
     68          1           0       -3.725323    4.193042   -1.282155
     69          1           0       -4.293480    2.173493    1.040350
     70          1           0       -4.002631    3.449589    1.381818
     71          1           0       -2.299692    5.264200    0.220026
     72          1           0       -0.744476    5.321085   -0.574413
     73          1           0       -0.836566    5.364291    1.169927
     74          1           0       -0.463570    0.095346    3.855749
     75          1           0        0.580396    1.401331    4.363295
     76          1           0        2.728260   -0.716501    2.387177
     77          1           0        0.751187   -4.606501    0.650979
     78          1           0       -3.431977    0.183691    0.639667
     79          1           0        1.356254    4.336391    0.352824
     80          1           0        5.343853   -0.494395   -0.983259
     81          1           0       -0.143966    1.429350    2.773459
 ---------------------------------------------------------------------

 SCF Done:  E(UPBE1PBE) =  -3535.07105694     A.U. after   88 cycles

 Alpha virt. eigenvalues --    0.33452   0.33999   0.34110   0.34228   0.34429
 Alpha virt. eigenvalues --    0.34837   0.34967   0.35031   0.35278   0.35703
 Alpha virt. eigenvalues --    0.35892   0.36475   0.36629   0.36686   0.37059

  Beta  occ. eigenvalues -- -256.43385 -88.98658 -30.17773 -26.01071 -26.00926
  Beta  occ. eigenvalues --  -26.00264 -19.27836 -19.24605 -19.17819 -19.17480
  Beta  occ. eigenvalues --  -14.41860 -14.40675 -14.40581 -14.39876 -10.38107
  Beta  occ. eigenvalues --  -10.35841 -10.27709 -10.27337 -10.27211 -10.26499
  Beta  occ. eigenvalues --  -10.26137 -10.26026 -10.26014 -10.25602 -10.25228
  Beta  occ. eigenvalues --  -10.25079 -10.24841 -10.24607 -10.24574 -10.24375
  Beta  occ. eigenvalues --  -10.24069 -10.23888 -10.23770 -10.23660 -10.23598
  Beta  occ. eigenvalues --  -10.23594 -10.23513 -10.23477 -10.23276 -10.23233
  Beta  occ. eigenvalues --  -10.23037 -10.22988 -10.22956 -10.22935 -10.22295
  Beta  occ. eigenvalues --  -10.22010 -10.20910 -10.20685 -10.19944  -7.96715
  Beta  occ. eigenvalues --   -5.90531  -5.89788  -5.89672  -3.48303  -2.24326
  Beta  occ. eigenvalues --   -2.23916  -2.20846  -1.21397  -1.18591  -1.04212
  Beta  occ. eigenvalues --   -1.02378  -1.01989  -1.00818  -0.99432  -0.98971
  Beta  occ. eigenvalues --   -0.86848  -0.85860  -0.85324  -0.84601  -0.84192
  Beta  occ. eigenvalues --   -0.83609  -0.82984  -0.82926  -0.80833  -0.80341
  Beta  occ. eigenvalues --   -0.79233  -0.78351  -0.77843  -0.77376  -0.75756
  Beta  occ. eigenvalues --   -0.74471  -0.73137  -0.72417  -0.71058  -0.70717
  Beta  occ. eigenvalues --   -0.70426  -0.68277  -0.67785  -0.67313  -0.65286
  Beta  occ. eigenvalues --   -0.62949  -0.61987  -0.60924  -0.60480  -0.59206
  Beta  occ. eigenvalues --   -0.57661  -0.57205  -0.55995  -0.55485  -0.54302
  Beta  occ. eigenvalues --   -0.53765  -0.53460  -0.53097  -0.51576  -0.51073
  Beta  occ. eigenvalues --   -0.50976  -0.50623  -0.50265  -0.49703  -0.49279
  Beta  occ. eigenvalues --   -0.48657  -0.48113  -0.47658  -0.47225  -0.46931
  Beta  occ. eigenvalues --   -0.46540  -0.46393  -0.45747  -0.45277  -0.45197
  Beta  occ. eigenvalues --   -0.45031  -0.44773  -0.44623  -0.44271  -0.43910
  Beta  occ. eigenvalues --   -0.43566  -0.43518  -0.43224  -0.42963  -0.42878
  Beta  occ. eigenvalues --   -0.42604  -0.42139  -0.41822  -0.41713  -0.41512
  Beta  occ. eigenvalues --   -0.41237  -0.40903  -0.40657  -0.40477  -0.40097
  Beta  occ. eigenvalues --   -0.39915  -0.39179  -0.38991  -0.38547  -0.38034
  Beta  occ. eigenvalues --   -0.37431  -0.37142  -0.36631  -0.35976  -0.35773
  Beta  occ. eigenvalues --   -0.34490  -0.34016  -0.33764  -0.33584  -0.33229
  Beta  occ. eigenvalues --   -0.32368  -0.31160  -0.30497  -0.30080  -0.29109
  Beta  occ. eigenvalues --   -0.28791  -0.28407  -0.28104  -0.27582  -0.27248
  Beta  occ. eigenvalues --   -0.26445  -0.25395  -0.25087  -0.23350  -0.22031
  Beta  occ. eigenvalues --   -0.21459  -0.20454
  Beta virt. eigenvalues --   -0.10696  -0.10390  -0.09551  -0.06908  -0.06741
  Beta virt. eigenvalues --   -0.04670  -0.04134  -0.03042  -0.01440  -0.00871
  Beta virt. eigenvalues --   -0.00268   0.00385   0.01627   0.02718   0.03296

 Mulliken charges and spin densities:
               1          2
     1  Fe   0.042998   2.908112
     2  C   -0.485799  -0.017729
     3  C   -0.474411   0.081235
     4  C   -0.452466   0.046296
     5  C   -0.468556   0.074975
     6  N   -0.080160  -0.077904
     7  C    0.336736   0.053262
     8  C   -0.067254   0.014312
     9  C    0.005512   0.047075
    10  C    0.227417   0.009525
    11  C   -0.413739  -0.004379
    12  C   -0.353119  -0.003710
    13  C   -0.222949   0.001145
    14  C    0.317882   0.000331
    15  O   -0.395153   0.000061
    16  O   -0.329493  -0.000032
    17  N   -0.144704  -0.042411
    18  C    0.303427  -0.016659
    19  C   -0.066394   0.019042
    20  C    0.095679  -0.009020
    21  C    0.241510   0.028834
    22  C   -0.393603  -0.001214
    23  C   -0.220200  -0.000738
    24  C   -0.261576   0.000787
    25  N   -0.095464  -0.076565
    26  C    0.292286   0.039395
    27  C   -0.094434   0.030180
    28  C    0.057112   0.047383
    29  C    0.269401   0.012821
    30  C   -0.343684  -0.003151
    31  C   -0.274579  -0.043414
    32  C   -0.315720   0.061444
    33  N   -0.091351  -0.052702
    34  C    0.216165  -0.006215
    35  C    0.054941   0.023066
    36  C   -0.039816  -0.000183
    37  C    0.357233   0.041560
    38  C   -0.413382  -0.003922
    39  C   -0.377367  -0.000670
    40  C   -0.208117   0.000340
    41  C    0.376544   0.000078
    42  O   -0.355762   0.000065
    43  O   -0.188879   0.000009
    44  C   -0.290245   0.218628
    45  S   -0.353533   0.349090
    46  H    0.129760   0.000004
    47  H    0.342677   0.000090
    48  H    0.145343   0.000630
    49  H    0.145719   0.002593
    50  H    0.124437   0.000186
    51  H    0.107680  -0.002123
    52  H    0.144230  -0.002817
    53  H    0.128182   0.007100
    54  H    0.116151  -0.000262
    55  H    0.101941   0.000149
    56  H    0.131563  -0.000079
    57  H    0.138060   0.000666
    58  H    0.135954  -0.000070
    59  H    0.147732   0.001094
    60  H    0.142270   0.001838
    61  H    0.147249   0.000457
    62  H    0.142305   0.002497
    63  H    0.147302  -0.000041
    64  H    0.150023  -0.000130
    65  H    0.105366  -0.000003
    66  H    0.147711   0.000868
    67  H    0.147231   0.000050
    68  H    0.125754   0.000002
    69  H    0.113028  -0.000248
    70  H    0.119514   0.000092
    71  H    0.142025  -0.000063
    72  H    0.151956   0.002320
    73  H    0.146003   0.001412
    74  H    0.134682  -0.000999
    75  H    0.141273   0.004872
    76  H    0.165944   0.227280
    77  H    0.148305  -0.004379
    78  H    0.129631   0.000129
    79  H    0.157506  -0.004047
    80  H    0.101040  -0.001724
    81  H    0.131518   0.014227
 Sum of Mulliken charges =  -0.00000   4.00000

 Dipole moment (field-independent basis, Debye):
    X=             -2.0551    Y=              0.9611    Z=              3.7290  Tot=              4.3649
 Quadrupole moment (field-independent basis, Debye-Ang):
   XX=           -299.8042   YY=           -243.3579   ZZ=           -292.3078
   XY=            -11.9801   XZ=            -50.7513   YZ=              6.8513

 Summary of Natural Population Analysis:

                                       Natural Population
                Natural  -----------------------------------------------
    Atom  No    Charge         Core      Valence    Rydberg      Total
 -----------------------------------------------------------------------
     Fe    1    1.74158      8.99540     2.24529    0.01773    11.25842
      C    2   -0.12225      0.99946     2.11418    0.00861     3.12225
      C    3   -0.07818      0.99949     2.07076    0.00794     3.07818
      C    4   -0.09234      0.99950     2.08476    0.00807     3.09234
      C    5   -0.09807      0.99949     2.09049    0.00809     3.09807
      N    6   -0.23700      0.99968     2.71838    0.01894     3.73700
      C    7    0.09397      0.99947     1.89633    0.01023     2.90603
      C    8   -0.01017      0.99941     2.00065    0.01012     3.01017
      C    9    0.01456      0.99941     1.97767    0.00836     2.98544
      C   10    0.08026      0.99948     1.90975    0.01050     2.91974
      C   11   -0.32195      0.99970     2.31844    0.00380     3.32195
      C   12   -0.23771      0.99964     2.22969    0.00837     3.23771
      C   13   -0.27114      0.99958     2.26199    0.00957     3.27114
      C   14    0.38013      0.99977     1.60173    0.01837     2.61987
      O   15   -0.31247      0.99989     3.30023    0.01234     4.31247
      O   16   -0.31906      0.99983     3.30488    0.01435     4.31906
      N   17   -0.23355      0.99965     2.71340    0.02050     3.73355
      C   18    0.07393      0.99952     1.91556    0.01100     2.92607
      C   19    0.01076      0.99943     1.98154    0.00827     2.98924
      C   20   -0.04614      0.99943     2.03640    0.01031     3.04614
      C   21    0.09702      0.99956     1.89269    0.01073     2.90298
      C   22   -0.32044      0.99970     2.31701    0.00373     3.32044
      C   23   -0.07042      0.99959     2.06140    0.00944     3.07042
      C   24   -0.21807      0.99942     2.20768    0.01098     3.21807
      N   25   -0.23632      0.99968     2.71594    0.02070     3.73632
      C   26    0.07686      0.99950     1.91311    0.01053     2.92314
      C   27    0.02896      0.99948     1.96290    0.00866     2.97104
      C   28   -0.04021      0.99947     2.02975    0.01099     3.04021
      C   29    0.09444      0.99952     1.89598    0.01005     2.90556
      C   30   -0.32149      0.99970     2.31541    0.00638     3.32149
      C   31   -0.07670      0.99959     2.06742    0.00969     3.07670
      C   32   -0.21375      0.99938     2.20204    0.01234     3.21375
      N   33   -0.24244      0.99962     2.72397    0.01884     3.74244
      C   34    0.08757      0.99955     1.90248    0.01040     2.91243
      C   35    0.00591      0.99942     1.98651    0.00815     2.99409
      C   36   -0.01385      0.99941     2.00467    0.00977     3.01385
      C   37    0.09761      0.99953     1.89224    0.01061     2.90239
      C   38   -0.32439      0.99969     2.32078    0.00392     3.32439
      C   39   -0.23236      0.99962     2.22475    0.00798     3.23236
      C   40   -0.26686      0.99958     2.25817    0.00911     3.26686
      C   41    0.38274      0.99974     1.60168    0.01585     2.61726
      O   42   -0.28883      0.99989     3.27687    0.01207     4.28883
      O   43   -0.30194      0.99973     3.29433    0.00788     4.30194
      C   44   -0.23589      0.99958     2.23000    0.00632     3.23589
      S   45    0.11587      4.99932     2.87387    0.01093     7.88413
      H   46    0.22086      0.00000     0.27758    0.00156     0.27914
      H   47    0.25495      0.00000     0.24329    0.00176     0.24505
      H   48    0.11856      0.00000     0.38070    0.00074     0.38144
      H   49    0.11620      0.00000     0.38316    0.00064     0.38380
      H   50    0.10609      0.00000     0.39334    0.00057     0.39391
      H   51    0.08907      0.00000     0.41016    0.00077     0.41093
      H   52    0.11129      0.00000     0.38728    0.00142     0.38871
      H   53    0.10087      0.00000     0.39792    0.00120     0.39913
      H   54    0.10307      0.00000     0.39596    0.00097     0.39693
      H   55    0.08966      0.00000     0.40932    0.00102     0.41034
      H   56    0.10130      0.00000     0.39779    0.00091     0.39870
      H   57    0.11228      0.00000     0.38705    0.00068     0.38772
      H   58    0.11316      0.00000     0.38611    0.00073     0.38684
      H   59    0.11301      0.00000     0.38623    0.00076     0.38699
      H   60    0.11197      0.00000     0.38731    0.00072     0.38803
      H   61    0.11335      0.00000     0.38595    0.00070     0.38665
      H   62    0.11332      0.00000     0.38592    0.00076     0.38668
      H   63    0.13524      0.00000     0.36401    0.00075     0.36476
      H   64    0.13590      0.00000     0.36345    0.00064     0.36410
      H   65    0.11491      0.00000     0.38411    0.00098     0.38509
      H   66    0.12565      0.00000     0.37357    0.00078     0.37435
      H   67    0.13072      0.00000     0.36854    0.00073     0.36928
      H   68    0.12660      0.00000     0.37264    0.00075     0.37340
      H   69    0.11612      0.00000     0.38289    0.00099     0.38388
      H   70    0.11726      0.00000     0.38147    0.00127     0.38274
      H   71    0.11250      0.00000     0.38674    0.00076     0.38750
      H   72    0.11407      0.00000     0.38518    0.00074     0.38593
      H   73    0.11447      0.00000     0.38479    0.00073     0.38553
      H   74    0.10519      0.00000     0.39391    0.00091     0.39481
      H   75    0.10825      0.00000     0.39090    0.00084     0.39175
      H   76    0.18615      0.00000     0.31120    0.00265     0.31385
      H   77    0.11305      0.00000     0.38587    0.00109     0.38695
      H   78    0.11721      0.00000     0.38181    0.00098     0.38279
      H   79    0.11441      0.00000     0.38460    0.00099     0.38559
      H   80    0.11158      0.00000     0.38703    0.00138     0.38842
      H   81    0.11353      0.00000     0.38540    0.00107     0.38647
 =======================================================================
   * Total *    2.00000     56.97652   114.50699    0.51649   172.00000

 Normal termination of Gaussian 16 at Fri Feb  3 11:13:52 2023.
