 Gaussian 16, Revision A.03,
 Gaussian 16:  ES64L-G16RevA.03 25-Dec-2016

 ----------------------------------------------------------------------
 # PBE1PBE/def2TZVP empiricaldispersion=GD3BJ int=(grid=ultrafine) geom
 =check pop=nbo
 ----------------------------------------------------------------------

 ----------
 1cmq_III_H
 ----------
 Structure from the checkpoint file:  "1cmq_III_H.chk"
 Charge =  1 Multiplicity = 6

                         Standard orientation:
 ---------------------------------------------------------------------
 Center     Atomic      Atomic             Coordinates (Angstroms)
 Number     Number       Type             X           Y           Z
 ---------------------------------------------------------------------
      1          6           0       -1.476983   -1.891552    4.935873
      2          6           0       -1.465226   -1.011614    3.699858
      3          7           0       -1.921887    0.224389    3.558864
      4          6           0       -0.944368   -1.340893    2.464748
      5          6           0       -1.715160    0.679865    2.353986
      6          7           0       -1.116079   -0.293146    1.691465
      7          1           0       -2.428962    0.704496    4.231589
      8          6           0        2.413925    0.127313    0.333656
      9          6           0       -1.028379    3.417554   -0.231266
     10          6           0       -4.351611    0.040369   -0.728680
     11          6           0       -0.846614   -3.194579   -0.688065
     12          6           0        1.769904    1.371882    0.285366
     13          6           0        2.426948    2.587812    0.251575
     14          6           0        1.432536    3.559477    0.102105
     15          6           0        0.241079    2.856337    0.009276
     16          6           0        1.601841    5.074697    0.078660
     17          6           0        3.937469    2.777908    0.320853
     18          6           0        4.664881    2.804793   -1.007705
     19          6           0        6.179501    2.919952   -0.860439
     20          8           0        6.691792    3.944651   -0.391978
     21          8           0        6.893830    1.980354   -1.213328
     22          6           0       -2.290910    2.809805   -0.286389
     23          6           0       -3.513302    3.498102   -0.319525
     24          6           0       -4.480050    2.484451   -0.402101
     25          6           0       -3.782224    1.286374   -0.471190
     26          6           0       -3.634756    5.024333   -0.257041
     27          6           0       -5.873189    2.530694   -0.368079
     28          6           0       -6.682999    3.687341   -0.096373
     29          6           0       -3.690329   -1.192627   -0.823217
     30          6           0       -4.317373   -2.406926   -1.099727
     31          6           0       -3.261276   -3.332648   -1.125624
     32          6           0       -2.104584   -2.619713   -0.825515
     33          6           0       -5.810000   -2.583203   -1.429534
     34          6           0       -3.228699   -4.709898   -1.389530
     35          6           0       -4.336776   -5.582505   -1.634112
     36          6           0        0.363299   -2.618334   -0.389102
     37          6           0        1.508738   -3.332848   -0.095432
     38          6           0        2.477149   -2.392126    0.258996
     39          6           0        1.843613   -1.145145    0.113002
     40          6           0        1.652398   -4.845967   -0.078606
     41          6           0        3.909131   -2.713905    0.698133
     42          6           0        4.925449   -2.555662   -0.452171
     43          6           0        6.419729   -2.708444   -0.158804
     44          8           0        7.237300   -2.264535   -0.965732
     45          8           0        6.791391   -3.252007    0.877871
     46          7           0        0.436864    1.551236    0.198109
     47          7           0       -2.475838    1.479000   -0.253777
     48          7           0       -2.360889   -1.328241   -0.671804
     49          7           0        0.560528   -1.309324   -0.270960
     50          8           0       -0.577338    0.936398   -2.174946
     51          1           0        7.405909    4.382013   -0.861395
     52          1           0        7.425816   -2.748125   -1.773323
     53          1           0        4.672513   -3.275338   -1.202497
     54          1           0        4.781025   -1.582898   -0.873801
     55          1           0        4.439267    1.904931   -1.540854
     56          1           0        4.310821    3.639352   -1.576082
     57          1           0        4.133542    3.700619    0.825888
     58          1           0        4.346108    1.981810    0.907490
     59          1           0        3.943701   -3.722249    1.054431
     60          1           0        4.183148   -2.054928    1.495355
     61          1           0        3.458602    0.143905    0.564471
     62          1           0        1.390370    5.442053   -0.903801
     63          1           0        0.926395    5.519933    0.778973
     64          1           0        2.607561    5.325361    0.344356
     65          1           0       -1.029436    4.474438   -0.398283
     66          1           0       -4.018423    5.389949   -1.186570
     67          1           0       -4.300029    5.297042    0.535386
     68          1           0       -2.670623    5.451749   -0.076307
     69          1           0       -7.500011    3.932171   -0.742477
     70          1           0       -6.468611    4.303245    0.751919
     71          1           0       -6.390854    1.614868   -0.563490
     72          1           0       -5.952664   -3.503786   -1.955912
     73          1           0       -6.376283   -2.599909   -0.521820
     74          1           0       -6.138973   -1.768491   -2.040206
     75          1           0       -4.341206   -6.569998   -1.222119
     76          1           0       -5.160618   -5.247272   -2.228926
     77          1           0       -2.259363   -5.162497   -1.410543
     78          1           0       -0.816244   -4.253434   -0.839079
     79          1           0        2.313867   -5.150177   -0.862708
     80          1           0        2.051114   -5.155915    0.864716
     81          1           0        0.693341   -5.296954   -0.225983
     82          1           0       -0.820231    0.614317   -3.046076
     83          1           0       -1.283641    1.486824   -1.828873
     84          1           0       -0.489051   -2.269519    2.190450
     85          1           0       -1.977917    1.646658    1.978259
     86          1           0       -0.819676   -2.722833    4.788155
     87          1           0       -1.149137   -1.323454    5.781261
     88          1           0       -2.470426   -2.248908    5.109848
     89         26           0       -0.944616    0.095735   -0.246035
     90          1           0       -5.412085    0.022741   -0.870041
 ---------------------------------------------------------------------

 SCF Done:  E(UPBE1PBE) =  -3438.41472937     A.U. after   55 cycles

 Alpha virt. eigenvalues --    0.60682   0.60885   0.61081   0.61486   0.61707
 Alpha virt. eigenvalues --    0.62123   0.62298   0.62701   0.62820   0.63273
 Alpha virt. eigenvalues --    0.63404   0.63638   0.64186   0.64250   0.64668

  Beta  occ. eigenvalues -- -256.56555 -30.29560 -26.12805 -26.12766 -26.12720
  Beta  occ. eigenvalues --  -19.34297 -19.32368 -19.31047 -19.24198 -19.23909
  Beta  occ. eigenvalues --  -14.55900 -14.50317 -14.48601 -14.47780 -14.47121
  Beta  occ. eigenvalues --  -14.46832 -10.41703 -10.41087 -10.39065 -10.36802
  Beta  occ. eigenvalues --  -10.36180 -10.35846 -10.35376 -10.35371 -10.35112
  Beta  occ. eigenvalues --  -10.35098 -10.34918 -10.34469 -10.34444 -10.33814
  Beta  occ. eigenvalues --  -10.33178 -10.33139 -10.33102 -10.33088 -10.32927
  Beta  occ. eigenvalues --  -10.32856 -10.32786 -10.32468 -10.32405 -10.32403
  Beta  occ. eigenvalues --  -10.32397 -10.32387 -10.32281 -10.32250 -10.32241
  Beta  occ. eigenvalues --  -10.31682 -10.31415 -10.30903 -10.30850 -10.30748
  Beta  occ. eigenvalues --  -10.30635 -10.30404 -10.30399 -10.30257  -3.58639
  Beta  occ. eigenvalues --   -2.33180  -2.32975  -2.32733  -1.24224  -1.23386
  Beta  occ. eigenvalues --   -1.20172  -1.18490  -1.11853  -1.10771  -1.10199
  Beta  occ. eigenvalues --   -1.09568  -1.09461  -1.09419  -1.04259  -0.95235
  Beta  occ. eigenvalues --   -0.93993  -0.93203  -0.92928  -0.92483  -0.92355
  Beta  occ. eigenvalues --   -0.92013  -0.91858  -0.88935  -0.87901  -0.86879
  Beta  occ. eigenvalues --   -0.86251  -0.85952  -0.84021  -0.83325  -0.82156
  Beta  occ. eigenvalues --   -0.81977  -0.81554  -0.80177  -0.78221  -0.77734
  Beta  occ. eigenvalues --   -0.77384  -0.76924  -0.76766  -0.74511  -0.74052
  Beta  occ. eigenvalues --   -0.73471  -0.73205  -0.72405  -0.70621  -0.69864
  Beta  occ. eigenvalues --   -0.69509  -0.68465  -0.66922  -0.65948  -0.65503
  Beta  occ. eigenvalues --   -0.64191  -0.63389  -0.62973  -0.62736  -0.60864
  Beta  occ. eigenvalues --   -0.60340  -0.60181  -0.59738  -0.59624  -0.59288
  Beta  occ. eigenvalues --   -0.58894  -0.57627  -0.57574  -0.57364  -0.57163
  Beta  occ. eigenvalues --   -0.56648  -0.56162  -0.55840  -0.55508  -0.54805
  Beta  occ. eigenvalues --   -0.54695  -0.54446  -0.54291  -0.54227  -0.54032
  Beta  occ. eigenvalues --   -0.53788  -0.53586  -0.53360  -0.53269  -0.53041
  Beta  occ. eigenvalues --   -0.52736  -0.52395  -0.52188  -0.51707  -0.51559
  Beta  occ. eigenvalues --   -0.51316  -0.51306  -0.51218  -0.51026  -0.50487
  Beta  occ. eigenvalues --   -0.50282  -0.50088  -0.49388  -0.49202  -0.48759
  Beta  occ. eigenvalues --   -0.48673  -0.48444  -0.48099  -0.47579  -0.47299
  Beta  occ. eigenvalues --   -0.47135  -0.46908  -0.46792  -0.46475  -0.46082
  Beta  occ. eigenvalues --   -0.46014  -0.45356  -0.45136  -0.44437  -0.44053
  Beta  occ. eigenvalues --   -0.43563  -0.43021  -0.42486  -0.41820  -0.40884
  Beta  occ. eigenvalues --   -0.40842  -0.40260  -0.39788  -0.39658  -0.38537
  Beta  occ. eigenvalues --   -0.38203  -0.35339  -0.34525  -0.34234  -0.33670
  Beta  occ. eigenvalues --   -0.33534  -0.32171  -0.30582  -0.30078  -0.29041
  Beta virt. eigenvalues --   -0.21257  -0.21063  -0.19843  -0.18280  -0.17993
  Beta virt. eigenvalues --   -0.14922  -0.14320  -0.13017  -0.12797  -0.09709
  Beta virt. eigenvalues --   -0.08580  -0.07538  -0.07148  -0.06871  -0.05776

 Mulliken charges and spin densities:
               1          2
     1  C   -0.361090   0.001387
     2  C    0.145627   0.012885
     3  N   -0.181536   0.002889
     4  C   -0.198367  -0.002948
     5  C    0.032881   0.010704
     6  N    0.010516   0.082411
     7  H    0.233390   0.001193
     8  C   -0.485864   0.003906
     9  C   -0.480576   0.000979
    10  C   -0.478565  -0.044649
    11  C   -0.452079  -0.031214
    12  C    0.322434   0.000995
    13  C    0.103879   0.017895
    14  C   -0.137399   0.012628
    15  C    0.304314   0.009247
    16  C   -0.390077   0.000565
    17  C   -0.459092  -0.000071
    18  C   -0.112710   0.000688
    19  C    0.244467   0.000087
    20  O   -0.333262   0.000009
    21  O   -0.339511   0.000158
    22  C    0.327411   0.001704
    23  C   -0.165740   0.052226
    24  C    0.033232  -0.011727
    25  C    0.289447   0.026736
    26  C   -0.322111  -0.001462
    27  C   -0.142453   0.056309
    28  C   -0.294462  -0.067720
    29  C    0.302869   0.030570
    30  C   -0.160929  -0.027641
    31  C    0.010569   0.066468
    32  C    0.297193   0.009827
    33  C   -0.343904   0.002733
    34  C   -0.093663  -0.136334
    35  C   -0.283683   0.203156
    36  C    0.293781   0.020602
    37  C   -0.098532   0.014765
    38  C    0.010527   0.026715
    39  C    0.246573   0.002113
    40  C   -0.374803   0.001039
    41  C   -0.244703  -0.000829
    42  C   -0.299175   0.001072
    43  C    0.288787   0.000147
    44  O   -0.315666   0.000102
    45  O   -0.317211   0.000010
    46  N   -0.074824   0.068686
    47  N   -0.281479   0.046219
    48  N   -0.069776   0.042391
    49  N   -0.107672   0.067708
    50  O   -0.490533   0.033455
    51  H    0.363973  -0.000003
    52  H    0.355491  -0.000001
    53  H    0.132684  -0.000017
    54  H    0.144521  -0.000014
    55  H    0.132164   0.000003
    56  H    0.117741  -0.000026
    57  H    0.142805   0.000304
    58  H    0.144704   0.000254
    59  H    0.125579   0.000569
    60  H    0.136695   0.000447
    61  H    0.144520  -0.000859
    62  H    0.151274   0.000409
    63  H    0.147257   0.000301
    64  H    0.144231   0.000324
    65  H    0.136872  -0.000628
    66  H    0.157892   0.001925
    67  H    0.139526   0.001342
    68  H    0.125898  -0.000088
    69  H    0.165576   0.003909
    70  H    0.151734   0.003801
    71  H    0.127868  -0.003879
    72  H    0.118175  -0.000111
    73  H    0.158258  -0.001102
    74  H    0.141986  -0.000568
    75  H    0.158189  -0.010323
    76  H    0.148132  -0.010412
    77  H    0.128713   0.008177
    78  H    0.069116   0.000548
    79  H    0.153627   0.000414
    80  H    0.154536   0.000577
    81  H    0.123839  -0.000043
    82  H    0.351760   0.005217
    83  H    0.330344   0.002648
    84  H    0.162572   0.002255
    85  H    0.196203   0.001385
    86  H    0.155343   0.000067
    87  H    0.148990   0.000393
    88  H    0.155427   0.000477
    89  Fe   0.027210   4.382404
    90  H    0.122124   0.001144
 Sum of Mulliken charges =   1.00000   5.00000

 Dipole moment (field-independent basis, Debye):
    X=             -9.0697    Y=              3.1690    Z=              0.3164  Tot=              9.6126
 Quadrupole moment (field-independent basis, Debye-Ang):
   XX=           -243.5524   YY=           -214.6505   ZZ=           -251.7091
   XY=             16.3930   XZ=            -28.2914   YZ=              7.2247

 Summary of Natural Population Analysis:

                                       Natural Population
                Natural  -----------------------------------------------
    Atom  No    Charge         Core      Valence    Rydberg      Total
 -----------------------------------------------------------------------
      C    1   -0.31860      0.99970     2.31569    0.00321     3.31860
      C    2    0.07090      0.99958     1.92032    0.00920     2.92910
      N    3   -0.21824      0.99964     2.70869    0.00991     3.71824
      C    4   -0.02778      0.99948     2.01846    0.00983     3.02778
      C    5    0.10099      0.99962     1.88883    0.01056     2.89901
      N    6   -0.14809      0.99965     2.62695    0.02149     3.64809
      H    7    0.21017      0.00000     0.28907    0.00076     0.28983
      C    8   -0.07899      0.99955     2.07172    0.00772     3.07899
      C    9   -0.10691      0.99955     2.09991    0.00746     3.10691
      C   10   -0.11498      0.99954     2.10803    0.00741     3.11498
      C   11   -0.09677      0.99952     2.08993    0.00732     3.09677
      C   12    0.07211      0.99944     1.91828    0.01017     2.92789
      C   13    0.00827      0.99942     1.98306    0.00924     2.99173
      C   14    0.00567      0.99943     1.98660    0.00830     2.99433
      C   15    0.07324      0.99946     1.91734    0.00996     2.92676
      C   16   -0.32023      0.99970     2.31703    0.00351     3.32023
      C   17   -0.21100      0.99965     2.20466    0.00668     3.21100
      C   18   -0.24382      0.99962     2.23587    0.00833     3.24382
      C   19    0.38122      0.99978     1.59980    0.01920     2.61878
      O   20   -0.33510      0.99979     3.32084    0.01447     4.33510
      O   21   -0.28937      0.99989     3.27679    0.01269     4.28937
      C   22    0.05239      0.99949     1.93803    0.01010     2.94761
      C   23    0.03544      0.99946     1.95646    0.00863     2.96456
      C   24   -0.05040      0.99926     2.03817    0.01297     3.05040
      C   25    0.09348      0.99950     1.89587    0.01116     2.90652
      C   26   -0.31784      0.99969     2.31438    0.00377     3.31784
      C   27   -0.07759      0.99963     2.06869    0.00926     3.07759
      C   28   -0.19806      0.99973     2.19222    0.00611     3.19806
      C   29    0.08345      0.99948     1.90699    0.01009     2.91655
      C   30   -0.00022      0.99945     1.99260    0.00817     3.00022
      C   31   -0.01184      0.99927     1.99985    0.01273     3.01184
      C   32    0.08147      0.99949     1.90755    0.01149     2.91853
      C   33   -0.31763      0.99969     2.31418    0.00375     3.31763
      C   34   -0.15723      0.99964     2.14854    0.00905     3.15723
      C   35   -0.07212      0.99972     2.06693    0.00547     3.07212
      C   36    0.06445      0.99944     1.92495    0.01115     2.93555
      C   37    0.01435      0.99928     1.97542    0.01096     2.98565
      C   38    0.00904      0.99944     1.98242    0.00910     2.99096
      C   39    0.07400      0.99949     1.91675    0.00977     2.92600
      C   40   -0.31916      0.99970     2.31582    0.00365     3.31916
      C   41   -0.21186      0.99967     2.20476    0.00743     3.21186
      C   42   -0.25397      0.99962     2.24606    0.00829     3.25397
      C   43    0.38481      0.99976     1.59702    0.01841     2.61519
      O   44   -0.33305      0.99978     3.31738    0.01589     4.33305
      O   45   -0.27724      0.99989     3.26494    0.01242     4.27724
      N   46   -0.17849      0.99966     2.65707    0.02177     3.67849
      N   47   -0.21990      0.99968     2.69928    0.02095     3.71990
      N   48   -0.18345      0.99966     2.66189    0.02190     3.68345
      N   49   -0.17502      0.99966     2.65304    0.02232     3.67502
      O   50   -0.38678      0.99992     3.37351    0.01335     4.38678
      H   51    0.26198      0.00000     0.23682    0.00119     0.23802
      H   52    0.25849      0.00000     0.24039    0.00112     0.24151
      H   53    0.11223      0.00000     0.38705    0.00071     0.38777
      H   54    0.11133      0.00000     0.38791    0.00076     0.38867
      H   55    0.11717      0.00000     0.38213    0.00070     0.38283
      H   56    0.11149      0.00000     0.38778    0.00073     0.38851
      H   57    0.11443      0.00000     0.38477    0.00080     0.38557
      H   58    0.10923      0.00000     0.38973    0.00104     0.39077
      H   59    0.11752      0.00000     0.38172    0.00077     0.38248
      H   60    0.11534      0.00000     0.38390    0.00075     0.38466
      H   61    0.11195      0.00000     0.38704    0.00101     0.38805
      H   62    0.11486      0.00000     0.38442    0.00072     0.38514
      H   63    0.11371      0.00000     0.38559    0.00070     0.38629
      H   64    0.11477      0.00000     0.38456    0.00067     0.38523
      H   65    0.11207      0.00000     0.38662    0.00130     0.38793
      H   66    0.12080      0.00000     0.37841    0.00079     0.37920
      H   67    0.11704      0.00000     0.38228    0.00068     0.38296
      H   68    0.10946      0.00000     0.38994    0.00060     0.39054
      H   69    0.10646      0.00000     0.39280    0.00073     0.39354
      H   70    0.09987      0.00000     0.39925    0.00087     0.40013
      H   71    0.10423      0.00000     0.39502    0.00075     0.39577
      H   72    0.11499      0.00000     0.38429    0.00072     0.38501
      H   73    0.11632      0.00000     0.38293    0.00076     0.38368
      H   74    0.11345      0.00000     0.38590    0.00065     0.38655
      H   75    0.10111      0.00000     0.39816    0.00073     0.39889
      H   76    0.09205      0.00000     0.40706    0.00089     0.40795
      H   77    0.10599      0.00000     0.39330    0.00071     0.39401
      H   78    0.10718      0.00000     0.39099    0.00184     0.39282
      H   79    0.11637      0.00000     0.38290    0.00073     0.38363
      H   80    0.11699      0.00000     0.38227    0.00074     0.38301
      H   81    0.10863      0.00000     0.39078    0.00060     0.39137
      H   82    0.25655      0.00000     0.24228    0.00118     0.24345
      H   83    0.25832      0.00000     0.24044    0.00123     0.24168
      H   84    0.11859      0.00000     0.38068    0.00072     0.38141
      H   85    0.12296      0.00000     0.37618    0.00086     0.37704
      H   86    0.12093      0.00000     0.37861    0.00046     0.37907
      H   87    0.11494      0.00000     0.38439    0.00067     0.38506
      H   88    0.11590      0.00000     0.38341    0.00069     0.38410
     Fe   89    2.47026      8.99581     1.49904    0.03489    10.52974
      H   90    0.11040      0.00000     0.38804    0.00156     0.38960
 =======================================================================
   * Total *    3.00005     57.97599   126.42842    0.59554   184.99995

 Normal termination of Gaussian 16 at Fri Sep 30 10:29:28 2022.
