 Gaussian 16, Revision A.03,
 Gaussian 16:  ES64L-G16RevA.03 25-Dec-2016

 ----------------------------------------------------------------------
 # PBE1PBE/def2TZVP empiricaldispersion=GD3BJ geom=check guess=read scr
 f=(smd,solvent=Chloroform)
 ----------------------------------------------------------------------

 ---------------
 1a6g_III_H_solv
 ---------------
 Structure from the checkpoint file:  "1a6g_III_H.chk"
 Charge =  1 Multiplicity = 6

                         Standard orientation:
 ---------------------------------------------------------------------
 Center     Atomic      Atomic             Coordinates (Angstroms)
 Number     Number       Type             X           Y           Z
 ---------------------------------------------------------------------
      1          6           0       -1.668641   -0.145279    5.292812
      2          6           0       -1.254598   -0.464156    3.872057
      3          7           0       -0.483759   -1.549544    3.561379
      4          6           0       -1.440696    0.196128    2.683998
      5          6           0       -0.249098   -1.484741    2.210824
      6          7           0       -0.821448   -0.449671    1.667667
      7         26           0       -0.723984    0.098720   -0.317666
      8          6           0        2.602199   -0.452503   -0.308600
      9          6           0       -1.288254   -3.183982   -1.130162
     10          6           0       -4.050075    0.662815   -0.381545
     11          6           0       -0.167747    3.346614    0.413137
     12          7           0        0.427754   -1.492778   -0.681890
     13          6           0        1.785478   -1.552720   -0.571465
     14          6           0        2.242471   -2.903006   -0.832461
     15          6           0        1.127798   -3.637650   -1.110093
     16          6           0        0.058414   -2.804100   -0.985911
     17          6           0        1.080326   -5.157057   -1.413901
     18          6           0        3.674702   -3.431078   -0.700846
     19          6           0        3.855934   -4.280191    0.587903
     20          6           0        3.536533   -3.512247    1.829572
     21          8           0        2.595994   -3.898986    2.569866
     22          8           0        4.222159   -2.484528    2.078858
     23          7           0       -2.378579   -0.999116   -0.668528
     24          6           0       -2.422961   -2.382987   -1.014722
     25          6           0       -3.770152   -2.797530   -1.176984
     26          6           0       -4.526313   -1.733658   -0.967353
     27          6           0       -3.654506   -0.603317   -0.652072
     28          6           0       -4.190256   -4.236376   -1.483579
     29          6           0       -6.026696   -1.610473   -1.111223
     30          6           0       -6.680165   -2.342620   -2.045838
     31          7           0       -1.853023    1.642466    0.001596
     32          6           0       -3.276022    1.798386   -0.142558
     33          6           0       -3.726764    3.140054   -0.038615
     34          6           0       -2.619367    3.899004    0.177573
     35          6           0       -1.459521    3.003438    0.203034
     36          6           0       -5.187114    3.592041   -0.158132
     37          6           0       -2.475848    5.397954    0.243669
     38          6           0       -3.575721    6.187318    0.182421
     39          7           0        0.872470    1.209764    0.064770
     40          6           0        0.940568    2.555549    0.357252
     41          6           0        2.315034    3.001552    0.463842
     42          6           0        3.072133    1.942310    0.204909
     43          6           0        2.195439    0.846664   -0.012707
     44          6           0        2.718319    4.445503    0.748162
     45          6           0        4.595561    1.896357    0.035348
     46          6           0        5.017935    2.207241   -1.431061
     47          6           0        6.472441    2.383974   -1.657329
     48          8           0        6.986048    3.473400   -1.294814
     49          8           0        7.048103    1.379372   -2.235236
     50          6           0       -0.707283    0.741667   -2.022664
     51          8           0       -0.696536    1.279695   -2.973117
     52          1           0       -1.836314    0.907229    5.387752
     53          1           0       -2.569273   -0.672632    5.528737
     54          1           0       -0.892990   -0.445045    5.966167
     55          1           0       -0.155767   -2.251803    4.193244
     56          1           0        0.334506   -2.199547    1.669198
     57          1           0       -2.000820    1.101266    2.574979
     58          1           0        5.041394    2.617982    0.687567
     59          1           0        4.947155    0.921234    0.300706
     60          1           0        4.678611    1.405425   -2.053034
     61          1           0        4.521209    3.103767   -1.738317
     62          1           0        7.554201    1.513922   -3.039823
     63          1           0        2.724768    5.000719   -0.166493
     64          1           0        2.017339    4.884539    1.426967
     65          1           0        3.695637    4.463766    1.183381
     66          1           0        0.006582    4.374245    0.654974
     67          1           0       -1.505558    5.838816    0.338950
     68          1           0       -3.864893    6.630747   -0.747445
     69          1           0       -4.154954    6.367134    1.063928
     70          1           0       -5.452571    3.671056   -1.191665
     71          1           0       -5.822415    2.875707    0.319527
     72          1           0       -5.305408    4.544762    0.314339
     73          1           0       -5.108706    0.814244   -0.345925
     74          1           0       -6.572323   -0.945247   -0.475090
     75          1           0       -7.646290   -2.747955   -1.828566
     76          1           0       -6.229988   -2.515355   -3.001036
     77          1           0       -3.495847   -4.671813   -2.171395
     78          1           0       -4.199738   -4.805871   -0.577772
     79          1           0       -5.168989   -4.237723   -1.915991
     80          1           0       -1.463053   -4.215074   -1.356426
     81          1           0        3.657692   -0.625715   -0.337457
     82          1           0        1.925238   -5.427758   -2.012018
     83          1           0        1.103234   -5.705339   -0.495335
     84          1           0        0.179738   -5.386813   -1.944046
     85          1           0        4.350770   -2.602274   -0.670571
     86          1           0        3.902894   -4.036883   -1.552802
     87          1           0        4.870503   -4.616001    0.640649
     88          1           0        3.211609   -5.132707    0.533493
     89          1           0        4.715457   -2.054597    1.376422
 ---------------------------------------------------------------------

 SCF Done:  E(UPBE1PBE) =  -3475.33380670     A.U. after   32 cycles

 Alpha virt. eigenvalues --    0.74291   0.74435   0.74742   0.74835   0.75415
 Alpha virt. eigenvalues --    0.75932   0.76016   0.76080   0.76387   0.76866
 Alpha virt. eigenvalues --    0.77415   0.77641   0.77886   0.78149   0.78417

  Beta  occ. eigenvalues -- -256.45948 -30.20860 -26.05130 -26.03532 -26.02705
  Beta  occ. eigenvalues --  -19.35195 -19.28386 -19.27111 -19.20608 -19.19875
  Beta  occ. eigenvalues --  -14.46423 -14.43646 -14.42440 -14.41118 -14.41090
  Beta  occ. eigenvalues --  -14.40943 -10.39730 -10.37505 -10.37200 -10.30664
  Beta  occ. eigenvalues --  -10.29344 -10.29238 -10.28514 -10.28433 -10.28419
  Beta  occ. eigenvalues --  -10.28386 -10.28105 -10.27954 -10.27828 -10.26985
  Beta  occ. eigenvalues --  -10.26001 -10.25720 -10.25719 -10.25657 -10.25619
  Beta  occ. eigenvalues --  -10.25456 -10.25334 -10.25260 -10.25212 -10.25137
  Beta  occ. eigenvalues --  -10.25078 -10.25072 -10.25036 -10.24926 -10.24483
  Beta  occ. eigenvalues --  -10.24225 -10.24202 -10.23991 -10.23409 -10.23216
  Beta  occ. eigenvalues --  -10.23090 -10.23003 -10.22724 -10.22446 -10.22443
  Beta  occ. eigenvalues --   -3.51471  -2.29671  -2.24835  -2.24141  -1.25934
  Beta  occ. eigenvalues --   -1.18273  -1.16121  -1.08576  -1.04772  -1.04503
  Beta  occ. eigenvalues --   -1.02100  -1.01174  -1.00831  -0.99123  -0.94801
  Beta  occ. eigenvalues --   -0.87241  -0.86344  -0.86113  -0.85730  -0.85102
  Beta  occ. eigenvalues --   -0.84368  -0.84121  -0.81961  -0.81780  -0.81127
  Beta  occ. eigenvalues --   -0.79590  -0.78778  -0.78464  -0.76576  -0.74903
  Beta  occ. eigenvalues --   -0.74511  -0.74210  -0.73939  -0.72472  -0.71872
  Beta  occ. eigenvalues --   -0.71432  -0.69662  -0.68901  -0.68209  -0.67232
  Beta  occ. eigenvalues --   -0.66478  -0.64779  -0.63582  -0.63417  -0.62988
  Beta  occ. eigenvalues --   -0.62339  -0.60712  -0.59300  -0.58731  -0.58240
  Beta  occ. eigenvalues --   -0.57531  -0.57160  -0.56056  -0.55622  -0.55429
  Beta  occ. eigenvalues --   -0.55199  -0.54986  -0.54138  -0.54011  -0.53355
  Beta  occ. eigenvalues --   -0.53093  -0.52439  -0.51613  -0.51335  -0.51072
  Beta  occ. eigenvalues --   -0.50578  -0.49978  -0.49774  -0.49691  -0.48646
  Beta  occ. eigenvalues --   -0.48242  -0.47669  -0.47518  -0.47212  -0.46917
  Beta  occ. eigenvalues --   -0.46426  -0.46215  -0.46075  -0.45947  -0.45788
  Beta  occ. eigenvalues --   -0.45440  -0.45106  -0.44972  -0.44735  -0.44658
  Beta  occ. eigenvalues --   -0.44401  -0.44218  -0.43908  -0.43648  -0.43295
  Beta  occ. eigenvalues --   -0.43203  -0.42943  -0.42775  -0.42717  -0.42377
  Beta  occ. eigenvalues --   -0.42114  -0.41792  -0.41722  -0.41478  -0.41085
  Beta  occ. eigenvalues --   -0.40808  -0.40513  -0.40370  -0.39908  -0.39522
  Beta  occ. eigenvalues --   -0.39449  -0.39137  -0.38977  -0.38616  -0.38578
  Beta  occ. eigenvalues --   -0.38028  -0.37270  -0.37135  -0.36510  -0.36153
  Beta  occ. eigenvalues --   -0.36088  -0.34881  -0.34644  -0.34530  -0.32879
  Beta  occ. eigenvalues --   -0.31910  -0.31806  -0.30282  -0.30199  -0.29884
  Beta  occ. eigenvalues --   -0.28835  -0.28063  -0.26487  -0.26155  -0.25081
  Beta  occ. eigenvalues --   -0.22724  -0.22378
  Beta virt. eigenvalues --   -0.15913  -0.11949  -0.10870  -0.09883  -0.08039
  Beta virt. eigenvalues --   -0.06366  -0.05968  -0.04715  -0.03536  -0.03134
  Beta virt. eigenvalues --   -0.02679  -0.02115  -0.01692  -0.01219  -0.00310

 Mulliken charges and spin densities:
               1          2
     1  C   -0.400179  -0.000488
     2  C    0.136235  -0.000084
     3  N   -0.195564  -0.001102
     4  C   -0.224804   0.000161
     5  C   -0.009477   0.005805
     6  N    0.083564  -0.058544
     7  Fe  -0.191289   2.837907
     8  C   -0.503026  -0.071367
     9  C   -0.482486   0.015495
    10  C   -0.463133   0.095680
    11  C   -0.436317  -0.022021
    12  N   -0.056946   0.012081
    13  C    0.265763   0.045201
    14  C   -0.001290   0.032302
    15  C   -0.097193   0.019116
    16  C    0.292179   0.019812
    17  C   -0.422404  -0.000362
    18  C   -0.384051  -0.001550
    19  C   -0.190859   0.001147
    20  C    0.296384   0.000666
    21  O   -0.434463   0.000019
    22  O   -0.297633  -0.000013
    23  N    0.007233   0.106414
    24  C    0.253169   0.010372
    25  C   -0.166012  -0.017974
    26  C    0.085217   0.033074
    27  C    0.196375  -0.044006
    28  C   -0.392218   0.002359
    29  C   -0.260230  -0.015165
    30  C   -0.336945   0.021495
    31  N   -0.079025   0.109468
    32  C    0.273367  -0.086825
    33  C   -0.082113   0.282732
    34  C   -0.075804  -0.140253
    35  C    0.252937   0.068106
    36  C   -0.389611  -0.012368
    37  C   -0.109122   0.692263
    38  C   -0.361266   1.001063
    39  N   -0.026655   0.011040
    40  C    0.256385   0.039355
    41  C   -0.070194   0.010513
    42  C   -0.032345   0.024491
    43  C    0.286875   0.047076
    44  C   -0.425184  -0.000335
    45  C   -0.325473  -0.001218
    46  C   -0.185596   0.001510
    47  C    0.331268   0.000177
    48  O   -0.402803   0.000135
    49  O   -0.388696   0.000104
    50  C    0.189962  -0.114991
    51  O    0.053568  -0.010974
    52  H    0.161910  -0.000010
    53  H    0.162061   0.000074
    54  H    0.157348  -0.000035
    55  H    0.290515  -0.000132
    56  H    0.217729  -0.000648
    57  H    0.174346  -0.000456
    58  H    0.151158   0.000508
    59  H    0.131820   0.000227
    60  H    0.125021  -0.000058
    61  H    0.153779  -0.000094
    62  H    0.387285  -0.000001
    63  H    0.162640   0.000608
    64  H    0.156826   0.000160
    65  H    0.161229   0.000292
    66  H    0.145835   0.003054
    67  H    0.170074   0.017145
    68  H    0.174693   0.003747
    69  H    0.176873   0.008933
    70  H    0.165652   0.013244
    71  H    0.155474   0.008648
    72  H    0.159093  -0.001900
    73  H    0.146847  -0.003855
    74  H    0.160890   0.001788
    75  H    0.167235  -0.001115
    76  H    0.174819  -0.001104
    77  H    0.150475  -0.000471
    78  H    0.159154  -0.000859
    79  H    0.160620   0.000084
    80  H    0.158785  -0.000866
    81  H    0.141942   0.002888
    82  H    0.158982   0.000398
    83  H    0.167095   0.000866
    84  H    0.154518   0.000107
    85  H    0.169926   0.000037
    86  H    0.158411   0.001127
    87  H    0.161100   0.000242
    88  H    0.133299  -0.000044
    89  H    0.374466  -0.000029
 Sum of Mulliken charges =   1.00000   5.00000

 Dipole moment (field-independent basis, Debye):
    X=             -1.3423    Y=             -1.7986    Z=             -1.0302  Tot=              2.4694
 Quadrupole moment (field-independent basis, Debye-Ang):
   XX=           -227.8683   YY=           -243.4017   ZZ=           -262.7475
   XY=            -34.4882   XZ=            -25.0504   YZ=             13.6257

 Normal termination of Gaussian 16 at Thu Nov 10 23:27:59 2022.
