 Gaussian 16, Revision A.03,
 Gaussian 16:  AM64L-G16RevA.03 25-Dec-2016

 ----------------------------------------------------------------------
 # PBE1PBE/def2TZVP empiricaldispersion=GD3BJ int=(grid=ultrafine) geom
 =check pop=nbo
 ----------------------------------------------------------------------

 ----------
 1aw3_III_D
 ----------
 Structure from the checkpoint file:  "1aw3_III_D.chk"
 Charge =  1 Multiplicity = 2

                         Standard orientation:
 ---------------------------------------------------------------------
 Center     Atomic      Atomic             Coordinates (Angstroms)
 Number     Number       Type             X           Y           Z
 ---------------------------------------------------------------------
      1          6           0       -1.448354   -0.350397    5.649956
      2          6           0       -1.144289    0.176523    4.266920
      3          7           0       -0.956512    1.501253    3.965085
      4          6           0       -1.137778   -0.513185    3.081597
      5          6           0       -0.831320    1.603380    2.635455
      6          7           0       -0.954038    0.406028    2.042885
      7          1           0       -2.489932   -0.671197    5.672718
      8          1           0       -1.347314    0.481330    6.348445
      9          1           0       -0.959955    2.268689    4.625628
     10          1           0       -1.276016   -1.572094    2.959344
     11          1           0       -0.678031    2.538497    2.129280
     12          6           0       -0.457650   -2.085126   -5.006037
     13          6           0       -0.591051   -1.061441   -3.914261
     14          7           0       -0.891683    0.270313   -4.074272
     15          6           0       -0.526728   -1.324142   -2.572976
     16          6           0       -0.997935    0.791707   -2.836815
     17          7           0       -0.797563   -0.143860   -1.882478
     18          1           0       -1.255004   -1.940027   -5.729486
     19          1           0       -0.626189   -3.055884   -4.549542
     20          1           0       -1.052220    0.757896   -4.954285
     21          1           0       -0.321523   -2.284268   -2.129273
     22          1           0       -1.233793    1.828865   -2.667678
     23          6           0        2.513870   -0.429899    0.336577
     24          6           0       -1.384615   -3.400408    0.690272
     25          6           0       -4.296082    0.417483   -0.310159
     26          6           0       -0.405069    3.449967   -0.371803
     27          6           0        1.690452   -1.552756    0.432604
     28          6           0        2.189966   -2.901690    0.539583
     29          6           0        1.109689   -3.736413    0.712793
     30          6           0       -0.078477   -2.918785    0.607595
     31          6           0        1.186944   -5.230011    0.939850
     32          6           0        3.636446   -3.320494    0.415533
     33          6           0        4.245824   -2.954350   -0.941429
     34          6           0        5.647440   -3.512458   -1.143233
     35          8           0        5.982325   -4.500751   -0.454939
     36          8           0        6.357705   -2.945926   -2.000551
     37          6           0       -2.495274   -2.590365    0.492851
     38          6           0       -3.858112   -3.067615    0.539292
     39          6           0       -4.641538   -1.992955    0.203292
     40          6           0       -3.811326   -0.837148    0.017793
     41          6           0       -4.321228   -4.460794    0.890695
     42          6           0       -6.150339   -1.971430    0.139603
     43          6           0       -6.824352   -2.939161   -0.500811
     44          6           0       -3.487893    1.547135   -0.401957
     45          6           0       -3.966107    2.853530   -0.774851
     46          6           0       -2.898168    3.705621   -0.658143
     47          6           0       -1.709599    2.939389   -0.390043
     48          6           0       -5.342455    3.200724   -1.268738
     49          6           0       -2.920252    5.180519   -0.989404
     50          6           0       -3.946258    5.979166   -0.620114
     51          6           0        0.729977    2.646621   -0.191424
     52          6           0        2.096273    3.120484   -0.214294
     53          6           0        2.918178    2.037344    0.025620
     54          6           0        2.060522    0.876967    0.145165
     55          6           0        2.542403    4.535569   -0.497012
     56          6           0        4.438856    2.017453    0.004137
     57          6           0        5.155057    3.116043    0.800481
     58          6           0        6.663260    2.970472    0.663110
     59          8           0        7.258594    2.330543    1.555185
     60          8           0        7.188670    3.493825   -0.342698
     61          7           0        0.334591   -1.620636    0.412115
     62          7           0       -2.526151   -1.238501    0.215500
     63          7           0       -2.130761    1.643944   -0.216703
     64          7           0        0.776496    1.298837    0.011331
     65         26           0       -0.886986    0.030323    0.104848
     66          1           0       -1.555452   -4.448533    0.867429
     67          1           0       -5.353677    0.500726   -0.494311
     68          1           0       -0.276000    4.509201   -0.523800
     69          1           0       -6.670363   -1.056123    0.347517
     70          1           0       -2.065806    5.619291   -1.475511
     71          1           0        3.568470   -0.595922    0.451871
     72          1           0        1.844057   -5.435048    1.784212
     73          1           0        0.216757   -5.672174    1.155525
     74          1           0        1.599021   -5.708158    0.051382
     75          1           0        4.228779   -2.853302    1.195150
     76          1           0        3.712238   -4.400332    0.543420
     77          1           0        3.594959   -3.354201   -1.702358
     78          1           0        4.297157   -1.879608   -1.091840
     79          1           0       -3.792294   -4.819970    1.771722
     80          1           0       -5.384883   -4.460124    1.120038
     81          1           0       -4.137938   -5.127505    0.050148
     82          1           0       -6.284974   -3.395400   -1.304641
     83          1           0       -7.903426   -2.914609   -0.535136
     84          1           0       -5.966327    3.523788   -0.434653
     85          1           0       -5.244437    4.000263   -2.002065
     86          1           0       -5.800671    2.347269   -1.762029
     87          1           0       -4.730243    5.601300    0.018583
     88          1           0       -3.864668    7.046754   -0.759785
     89          1           0        2.765161    5.039916    0.443610
     90          1           0        3.429633    4.516965   -1.130488
     91          1           0        1.778970    5.100424   -1.025919
     92          1           0        4.814055    1.093549    0.437183
     93          1           0        4.767252    2.031736   -1.036160
     94          1           0        4.896491    4.110461    0.453326
     95          1           0        4.889749    3.036667    1.851909
     96          1           0       -0.793793   -1.158627    5.901383
     97          1           0        0.499954   -2.007654   -5.477092
     98          1           0        7.020348   -2.306755   -1.728586
     99          1           0        7.007068    2.441919    2.474930
 ---------------------------------------------------------------------

 SCF Done:  E(UPBE1PBE) =  -3627.50531633     A.U. after   62 cycles

 Alpha virt. eigenvalues --    1.03849   1.04228   1.04400   1.05084   1.05359
 Alpha virt. eigenvalues --    1.05816   1.06019   1.06166   1.06979   1.07078
 Alpha virt. eigenvalues --    1.07640   1.07703   1.08000   1.08149   1.08678

  Beta  occ. eigenvalues -- -256.50554 -30.26946 -26.10010 -26.09771 -26.09097
  Beta  occ. eigenvalues --  -19.34026 -19.32268 -19.25243 -19.24953 -14.55943
  Beta  occ. eigenvalues --  -14.55857 -14.51727 -14.51700 -14.48534 -14.48394
  Beta  occ. eigenvalues --  -14.48243 -14.48177 -10.42413 -10.42325 -10.39831
  Beta  occ. eigenvalues --  -10.39538 -10.36681 -10.36515 -10.35766 -10.35543
  Beta  occ. eigenvalues --  -10.35382 -10.35335 -10.35314 -10.35279 -10.34955
  Beta  occ. eigenvalues --  -10.34907 -10.34376 -10.34298 -10.33244 -10.32733
  Beta  occ. eigenvalues --  -10.32715 -10.32508 -10.32282 -10.32229 -10.32204
  Beta  occ. eigenvalues --  -10.32140 -10.32130 -10.32063 -10.31990 -10.31979
  Beta  occ. eigenvalues --  -10.31920 -10.31768 -10.31595 -10.31423 -10.31295
  Beta  occ. eigenvalues --  -10.31103 -10.30623 -10.30468 -10.30447 -10.30228
  Beta  occ. eigenvalues --  -10.30055 -10.29941 -10.29657 -10.29469  -3.59175
  Beta  occ. eigenvalues --   -2.34494  -2.34276  -2.33921  -1.24396  -1.23369
  Beta  occ. eigenvalues --   -1.16555  -1.16199  -1.09993  -1.09813  -1.08654
  Beta  occ. eigenvalues --   -1.07762  -1.07697  -1.06803  -1.02015  -1.01833
  Beta  occ. eigenvalues --   -0.93915  -0.92363  -0.91919  -0.91745  -0.91401
  Beta  occ. eigenvalues --   -0.91185  -0.91049  -0.90807  -0.90758  -0.87802
  Beta  occ. eigenvalues --   -0.87058  -0.86257  -0.85996  -0.85602  -0.83275
  Beta  occ. eigenvalues --   -0.81919  -0.81651  -0.81105  -0.80781  -0.80083
  Beta  occ. eigenvalues --   -0.78717  -0.77643  -0.77161  -0.76099  -0.75904
  Beta  occ. eigenvalues --   -0.75771  -0.75494  -0.74584  -0.72708  -0.72623
  Beta  occ. eigenvalues --   -0.72473  -0.70049  -0.69210  -0.69166  -0.69031
  Beta  occ. eigenvalues --   -0.66666  -0.66373  -0.65300  -0.64469  -0.63821
  Beta  occ. eigenvalues --   -0.63222  -0.62572  -0.62167  -0.61669  -0.60419
  Beta  occ. eigenvalues --   -0.60323  -0.59080  -0.58605  -0.58576  -0.58510
  Beta  occ. eigenvalues --   -0.58195  -0.57975  -0.57732  -0.57690  -0.57451
  Beta  occ. eigenvalues --   -0.56522  -0.56167  -0.55711  -0.55151  -0.54851
  Beta  occ. eigenvalues --   -0.54583  -0.54464  -0.54087  -0.53833  -0.53599
  Beta  occ. eigenvalues --   -0.53541  -0.53262  -0.53192  -0.53005  -0.52795
  Beta  occ. eigenvalues --   -0.52659  -0.52497  -0.52454  -0.52308  -0.52036
  Beta  occ. eigenvalues --   -0.51619  -0.51422  -0.51149  -0.50938  -0.50916
  Beta  occ. eigenvalues --   -0.50461  -0.50228  -0.50048  -0.49832  -0.49647
  Beta  occ. eigenvalues --   -0.49228  -0.48763  -0.48606  -0.48305  -0.48184
  Beta  occ. eigenvalues --   -0.47601  -0.47493  -0.47260  -0.46749  -0.46665
  Beta  occ. eigenvalues --   -0.46302  -0.46039  -0.45860  -0.45561  -0.45210
  Beta  occ. eigenvalues --   -0.44642  -0.44017  -0.43928  -0.43296  -0.43024
  Beta  occ. eigenvalues --   -0.42815  -0.42548  -0.41825  -0.41417  -0.40714
  Beta  occ. eigenvalues --   -0.40366  -0.40007  -0.39540  -0.39213  -0.38968
  Beta  occ. eigenvalues --   -0.38146  -0.37588  -0.36775  -0.36345  -0.34849
  Beta  occ. eigenvalues --   -0.34813  -0.34552  -0.34442  -0.33191  -0.32577
  Beta  occ. eigenvalues --   -0.32361  -0.31674  -0.29966  -0.29269
  Beta virt. eigenvalues --   -0.19153  -0.17777  -0.16047  -0.12475  -0.12030
  Beta virt. eigenvalues --   -0.11625  -0.09351  -0.09246  -0.08254  -0.08223
  Beta virt. eigenvalues --   -0.08009  -0.07534  -0.06800  -0.06071  -0.06008

 Mulliken charges and spin densities:
               1          2
     1  C   -0.350548  -0.000370
     2  C    0.118500  -0.000193
     3  N   -0.200019   0.003831
     4  C   -0.181039   0.002234
     5  C    0.019897   0.020668
     6  N    0.155545  -0.048800
     7  H    0.160340   0.000087
     8  H    0.127538  -0.000062
     9  H    0.258502  -0.000475
    10  H    0.170633  -0.000319
    11  H    0.196699  -0.001171
    12  C   -0.373774  -0.000139
    13  C    0.151336  -0.000576
    14  N   -0.200854   0.003429
    15  C   -0.194726   0.002656
    16  C    0.025102   0.017533
    17  N    0.119609  -0.043496
    18  H    0.141870  -0.000010
    19  H    0.152337  -0.000029
    20  H    0.265424  -0.000439
    21  H    0.162507  -0.000339
    22  H    0.185369  -0.000958
    23  C   -0.511562  -0.005244
    24  C   -0.605333  -0.002974
    25  C   -0.511867  -0.005631
    26  C   -0.592230  -0.001135
    27  C    0.264646   0.003977
    28  C   -0.018871   0.011582
    29  C   -0.003764  -0.003711
    30  C    0.271140   0.007012
    31  C   -0.431166  -0.000279
    32  C   -0.311986  -0.001342
    33  C   -0.241734   0.000529
    34  C    0.299092   0.000064
    35  O   -0.324186  -0.000029
    36  O   -0.347554   0.000024
    37  C    0.232617   0.006561
    38  C   -0.097197  -0.003483
    39  C    0.042126   0.010857
    40  C    0.281464   0.003397
    41  C   -0.382756  -0.000513
    42  C   -0.235648  -0.005244
    43  C   -0.273831   0.006829
    44  C    0.303022   0.002474
    45  C   -0.154152   0.007090
    46  C    0.146792  -0.001659
    47  C    0.096033   0.004797
    48  C   -0.397573  -0.000632
    49  C   -0.255978  -0.000508
    50  C   -0.244983  -0.000279
    51  C    0.274825   0.003770
    52  C   -0.050029  -0.001672
    53  C   -0.016841   0.007945
    54  C    0.326355   0.004057
    55  C   -0.437457  -0.000532
    56  C   -0.356021  -0.000842
    57  C   -0.248604   0.000156
    58  C    0.334433   0.000010
    59  O   -0.306004   0.000008
    60  O   -0.348107   0.000005
    61  N   -0.036008  -0.032127
    62  N   -0.010273  -0.035359
    63  N   -0.011233  -0.037068
    64  N   -0.025991  -0.039588
    65  Fe  -0.251941   1.144204
    66  H    0.135713   0.000175
    67  H    0.132407   0.000161
    68  H    0.127170   0.000093
    69  H    0.127408   0.000594
    70  H    0.122560  -0.000001
    71  H    0.138229   0.000056
    72  H    0.161615  -0.000149
    73  H    0.134084  -0.000035
    74  H    0.156420  -0.000115
    75  H    0.127944   0.000572
    76  H    0.161886  -0.000052
    77  H    0.132190  -0.000003
    78  H    0.111267  -0.000024
    79  H    0.136078   0.000046
    80  H    0.169741  -0.000150
    81  H    0.146592  -0.000044
    82  H    0.146211  -0.000349
    83  H    0.144640  -0.000300
    84  H    0.152284   0.000498
    85  H    0.171389   0.000101
    86  H    0.136439   0.000106
    87  H    0.141225   0.000007
    88  H    0.145644  -0.000046
    89  H    0.161089  -0.000019
    90  H    0.170456  -0.000095
    91  H    0.135773  -0.000029
    92  H    0.102328   0.000025
    93  H    0.153253   0.000434
    94  H    0.131801  -0.000016
    95  H    0.109947   0.000012
    96  H    0.160374   0.000071
    97  H    0.157624  -0.000085
    98  H    0.362995   0.000007
    99  H    0.353313  -0.000000
 Sum of Mulliken charges =   1.00000   1.00000

 Dipole moment (field-independent basis, Debye):
    X=             -7.1400    Y=              3.7205    Z=              2.2734  Tot=              8.3661
 Quadrupole moment (field-independent basis, Debye-Ang):
   XX=           -298.6722   YY=           -286.5813   ZZ=           -235.8673
   XY=              5.8356   XZ=             20.5946   YZ=             15.3458

 Summary of Natural Population Analysis:

                                       Natural Population
                Natural  -----------------------------------------------
    Atom  No    Charge         Core      Valence    Rydberg      Total
 -----------------------------------------------------------------------
      C    1   -0.32089      0.99970     2.31799    0.00320     3.32089
      C    2    0.05859      0.99956     1.93289    0.00895     2.94141
      N    3   -0.23496      0.99968     2.72537    0.00991     3.73496
      C    4   -0.03217      0.99946     2.02398    0.00873     3.03217
      C    5    0.11744      0.99967     1.87242    0.01047     2.88256
      N    6   -0.18701      0.99969     2.66458    0.02275     3.68701
      H    7    0.12013      0.00000     0.37929    0.00059     0.37987
      H    8    0.11087      0.00000     0.38854    0.00059     0.38913
      H    9    0.21682      0.00000     0.28241    0.00078     0.28318
      H   10    0.11966      0.00000     0.37960    0.00075     0.38034
      H   11    0.11631      0.00000     0.38288    0.00081     0.38369
      C   12   -0.32103      0.99970     2.31566    0.00567     3.32103
      C   13    0.05800      0.99955     1.93346    0.00899     2.94200
      N   14   -0.23680      0.99968     2.72745    0.00967     3.73680
      C   15   -0.03301      0.99946     2.02428    0.00928     3.03301
      C   16    0.11553      0.99968     1.87432    0.01046     2.88447
      N   17   -0.19062      0.99970     2.66762    0.02331     3.69062
      H   18    0.11401      0.00000     0.38547    0.00052     0.38599
      H   19    0.12059      0.00000     0.37903    0.00038     0.37941
      H   20    0.21896      0.00000     0.28028    0.00076     0.28104
      H   21    0.11970      0.00000     0.37950    0.00080     0.38030
      H   22    0.11556      0.00000     0.38363    0.00081     0.38444
      C   23   -0.11140      0.99950     2.10383    0.00807     3.11140
      C   24   -0.12009      0.99948     2.11266    0.00795     3.12009
      C   25   -0.11310      0.99948     2.10569    0.00793     3.11310
      C   26   -0.13098      0.99949     2.12368    0.00780     3.13098
      C   27    0.07959      0.99951     1.91089    0.01001     2.92041
      C   28   -0.00121      0.99947     1.99259    0.00914     3.00121
      C   29   -0.01000      0.99947     2.00249    0.00804     3.01000
      C   30    0.08171      0.99951     1.90829    0.01049     2.91829
      C   31   -0.32374      0.99970     2.32001    0.00403     3.32374
      C   32   -0.21980      0.99968     2.21226    0.00786     3.21980
      C   33   -0.25447      0.99964     2.24640    0.00844     3.25447
      C   34    0.38632      0.99975     1.59628    0.01765     2.61368
      O   35   -0.27960      0.99989     3.26798    0.01173     4.27960
      O   36   -0.34137      0.99979     3.32671    0.01487     4.34137
      C   37    0.08100      0.99951     1.90934    0.01015     2.91900
      C   38   -0.00044      0.99946     1.99249    0.00850     3.00044
      C   39   -0.03158      0.99944     2.02186    0.01027     3.03158
      C   40    0.08470      0.99951     1.90576    0.01004     2.91530
      C   41   -0.32630      0.99971     2.32034    0.00626     3.32630
      C   42   -0.10438      0.99956     2.09547    0.00935     3.10438
      C   43   -0.18555      0.99956     2.17719    0.00880     3.18555
      C   44    0.07720      0.99951     1.91305    0.01024     2.92280
      C   45    0.00485      0.99946     1.98741    0.00828     2.99515
      C   46   -0.04401      0.99943     2.03452    0.01006     3.04401
      C   47    0.07764      0.99951     1.91239    0.01045     2.92236
      C   48   -0.32602      0.99971     2.31981    0.00650     3.32602
      C   49   -0.10850      0.99960     2.10009    0.00881     3.10850
      C   50   -0.18065      0.99962     2.17324    0.00779     3.18065
      C   51    0.07708      0.99952     1.91283    0.01057     2.92292
      C   52   -0.01019      0.99948     2.00261    0.00810     3.01019
      C   53   -0.00767      0.99946     1.99905    0.00916     3.00767
      C   54    0.08076      0.99952     1.90967    0.01005     2.91924
      C   55   -0.32515      0.99971     2.31896    0.00648     3.32515
      C   56   -0.21249      0.99967     2.20595    0.00687     3.21249
      C   57   -0.25229      0.99965     2.24376    0.00888     3.25229
      C   58    0.38172      0.99974     1.60093    0.01761     2.61828
      O   59   -0.32261      0.99980     3.30756    0.01525     4.32261
      O   60   -0.28248      0.99989     3.27058    0.01201     4.28248
      N   61   -0.21522      0.99966     2.69202    0.02353     3.71522
      N   62   -0.20593      0.99967     2.68332    0.02294     3.70593
      N   63   -0.21607      0.99967     2.69304    0.02337     3.71607
      N   64   -0.21110      0.99966     2.68778    0.02366     3.71110
     Fe   65    0.74668      8.99571     3.23382    0.02378    12.25332
      H   66    0.11941      0.00000     0.37931    0.00128     0.38059
      H   67    0.11821      0.00000     0.38064    0.00115     0.38179
      H   68    0.11990      0.00000     0.37894    0.00116     0.38010
      H   69    0.10723      0.00000     0.39182    0.00095     0.39277
      H   70    0.10400      0.00000     0.39510    0.00090     0.39600
      H   71    0.11369      0.00000     0.38520    0.00111     0.38631
      H   72    0.11810      0.00000     0.38121    0.00069     0.38190
      H   73    0.11063      0.00000     0.38885    0.00052     0.38937
      H   74    0.11703      0.00000     0.38227    0.00070     0.38297
      H   75    0.11181      0.00000     0.38739    0.00080     0.38819
      H   76    0.12641      0.00000     0.37285    0.00075     0.37359
      H   77    0.11967      0.00000     0.37964    0.00068     0.38033
      H   78    0.10698      0.00000     0.39234    0.00067     0.39302
      H   79    0.11086      0.00000     0.38850    0.00065     0.38914
      H   80    0.12398      0.00000     0.37533    0.00068     0.37602
      H   81    0.11546      0.00000     0.38389    0.00065     0.38454
      H   82    0.10351      0.00000     0.39548    0.00101     0.39649
      H   83    0.10386      0.00000     0.39551    0.00062     0.39614
      H   84    0.11581      0.00000     0.38348    0.00071     0.38419
      H   85    0.12218      0.00000     0.37711    0.00071     0.37782
      H   86    0.11173      0.00000     0.38773    0.00054     0.38827
      H   87    0.10031      0.00000     0.39893    0.00076     0.39969
      H   88    0.10600      0.00000     0.39336    0.00064     0.39400
      H   89    0.11526      0.00000     0.38404    0.00070     0.38474
      H   90    0.11828      0.00000     0.38108    0.00063     0.38172
      H   91    0.11142      0.00000     0.38809    0.00049     0.38858
      H   92    0.10502      0.00000     0.39409    0.00089     0.39498
      H   93    0.12084      0.00000     0.37825    0.00091     0.37916
      H   94    0.11956      0.00000     0.37972    0.00072     0.38044
      H   95    0.09779      0.00000     0.40131    0.00090     0.40221
      H   96    0.12113      0.00000     0.37834    0.00053     0.37887
      H   97    0.11698      0.00000     0.38245    0.00056     0.38302
      H   98    0.26178      0.00000     0.23710    0.00112     0.23822
      H   99    0.25464      0.00000     0.24428    0.00108     0.24536
 =======================================================================
   * Total *    1.00000     62.97426   140.37887    0.64687   204.00000

 Normal termination of Gaussian 16 at Sat Oct 15 04:20:21 2022.
