 Gaussian 16, Revision A.03,
 Gaussian 16:  ES64L-G16RevA.03 25-Dec-2016

 ----------------------------------------------------------------------
 # PBE1PBE/def2TZVP empiricaldispersion=GD3BJ int=(grid=ultrafine) geom
 =check pop=nbo
 ----------------------------------------------------------------------

 ----------
 1aw3_III_H
 ----------
 Structure from the checkpoint file:  "1aw3_III_H.chk"
 Charge =  1 Multiplicity = 6

                         Standard orientation:
 ---------------------------------------------------------------------
 Center     Atomic      Atomic             Coordinates (Angstroms)
 Number     Number       Type             X           Y           Z
 ---------------------------------------------------------------------
      1          6           0       -1.448354   -0.350397    5.649956
      2          6           0       -1.144289    0.176523    4.266920
      3          7           0       -0.956512    1.501253    3.965085
      4          6           0       -1.137778   -0.513185    3.081597
      5          6           0       -0.831320    1.603380    2.635455
      6          7           0       -0.954038    0.406028    2.042885
      7          1           0       -2.489932   -0.671197    5.672718
      8          1           0       -1.347314    0.481330    6.348445
      9          1           0       -0.959955    2.268689    4.625628
     10          1           0       -1.276016   -1.572094    2.959344
     11          1           0       -0.678031    2.538497    2.129280
     12          6           0       -0.457650   -2.085126   -5.006037
     13          6           0       -0.591051   -1.061441   -3.914261
     14          7           0       -0.891683    0.270313   -4.074272
     15          6           0       -0.526728   -1.324142   -2.572976
     16          6           0       -0.997935    0.791707   -2.836815
     17          7           0       -0.797563   -0.143860   -1.882478
     18          1           0       -1.255004   -1.940027   -5.729486
     19          1           0       -0.626189   -3.055884   -4.549542
     20          1           0       -1.052220    0.757896   -4.954285
     21          1           0       -0.321523   -2.284268   -2.129273
     22          1           0       -1.233793    1.828865   -2.667678
     23          6           0        2.513870   -0.429899    0.336577
     24          6           0       -1.384615   -3.400408    0.690272
     25          6           0       -4.296082    0.417483   -0.310159
     26          6           0       -0.405069    3.449967   -0.371803
     27          6           0        1.690452   -1.552756    0.432604
     28          6           0        2.189966   -2.901690    0.539583
     29          6           0        1.109689   -3.736413    0.712793
     30          6           0       -0.078477   -2.918785    0.607595
     31          6           0        1.186944   -5.230011    0.939850
     32          6           0        3.636446   -3.320494    0.415533
     33          6           0        4.245824   -2.954350   -0.941429
     34          6           0        5.647440   -3.512458   -1.143233
     35          8           0        5.982325   -4.500751   -0.454939
     36          8           0        6.357705   -2.945926   -2.000551
     37          6           0       -2.495274   -2.590365    0.492851
     38          6           0       -3.858112   -3.067615    0.539292
     39          6           0       -4.641538   -1.992955    0.203292
     40          6           0       -3.811326   -0.837148    0.017793
     41          6           0       -4.321228   -4.460794    0.890695
     42          6           0       -6.150339   -1.971430    0.139603
     43          6           0       -6.824352   -2.939161   -0.500811
     44          6           0       -3.487893    1.547135   -0.401957
     45          6           0       -3.966107    2.853530   -0.774851
     46          6           0       -2.898168    3.705621   -0.658143
     47          6           0       -1.709599    2.939389   -0.390043
     48          6           0       -5.342455    3.200724   -1.268738
     49          6           0       -2.920252    5.180519   -0.989404
     50          6           0       -3.946258    5.979166   -0.620114
     51          6           0        0.729977    2.646621   -0.191424
     52          6           0        2.096273    3.120484   -0.214294
     53          6           0        2.918178    2.037344    0.025620
     54          6           0        2.060522    0.876967    0.145165
     55          6           0        2.542403    4.535569   -0.497012
     56          6           0        4.438856    2.017453    0.004137
     57          6           0        5.155057    3.116043    0.800481
     58          6           0        6.663260    2.970472    0.663110
     59          8           0        7.258594    2.330543    1.555185
     60          8           0        7.188670    3.493825   -0.342698
     61          7           0        0.334591   -1.620636    0.412115
     62          7           0       -2.526151   -1.238501    0.215500
     63          7           0       -2.130761    1.643944   -0.216703
     64          7           0        0.776496    1.298837    0.011331
     65         26           0       -0.886986    0.030323    0.104848
     66          1           0       -1.555452   -4.448533    0.867429
     67          1           0       -5.353677    0.500726   -0.494311
     68          1           0       -0.276000    4.509201   -0.523800
     69          1           0       -6.670363   -1.056123    0.347517
     70          1           0       -2.065806    5.619291   -1.475511
     71          1           0        3.568470   -0.595922    0.451871
     72          1           0        1.844057   -5.435048    1.784212
     73          1           0        0.216757   -5.672174    1.155525
     74          1           0        1.599021   -5.708158    0.051382
     75          1           0        4.228779   -2.853302    1.195150
     76          1           0        3.712238   -4.400332    0.543420
     77          1           0        3.594959   -3.354201   -1.702358
     78          1           0        4.297157   -1.879608   -1.091840
     79          1           0       -3.792294   -4.819970    1.771722
     80          1           0       -5.384883   -4.460124    1.120038
     81          1           0       -4.137938   -5.127505    0.050148
     82          1           0       -6.284974   -3.395400   -1.304641
     83          1           0       -7.903426   -2.914609   -0.535136
     84          1           0       -5.966327    3.523788   -0.434653
     85          1           0       -5.244437    4.000263   -2.002065
     86          1           0       -5.800671    2.347269   -1.762029
     87          1           0       -4.730243    5.601300    0.018583
     88          1           0       -3.864668    7.046754   -0.759785
     89          1           0        2.765161    5.039916    0.443610
     90          1           0        3.429633    4.516965   -1.130488
     91          1           0        1.778970    5.100424   -1.025919
     92          1           0        4.814055    1.093549    0.437183
     93          1           0        4.767252    2.031736   -1.036160
     94          1           0        4.896491    4.110461    0.453326
     95          1           0        4.889749    3.036667    1.851909
     96          1           0       -0.793793   -1.158627    5.901383
     97          1           0        0.499954   -2.007654   -5.477092
     98          1           0        7.020348   -2.306755   -1.728586
     99          1           0        7.007068    2.441919    2.474930
 ---------------------------------------------------------------------

 SCF Done:  E(UPBE1PBE) =  -3627.49898973     A.U. after   31 cycles

 Alpha virt. eigenvalues --    1.04259   1.04942   1.05202   1.05471   1.05793
 Alpha virt. eigenvalues --    1.06008   1.06742   1.06931   1.07373   1.07506
 Alpha virt. eigenvalues --    1.07807   1.07951   1.08522   1.08798   1.09428

  Beta  occ. eigenvalues -- -256.54357 -30.27467 -26.10698 -26.10682 -26.10605
  Beta  occ. eigenvalues --  -19.34014 -19.32293 -19.25272 -19.24938 -14.55785
  Beta  occ. eigenvalues --  -14.55636 -14.50270 -14.50102 -14.47044 -14.47039
  Beta  occ. eigenvalues --  -14.46953 -14.46713 -10.42397 -10.42357 -10.39638
  Beta  occ. eigenvalues --  -10.39289 -10.36497 -10.36396 -10.35704 -10.35437
  Beta  occ. eigenvalues --  -10.35375 -10.35331 -10.35315 -10.35231 -10.35057
  Beta  occ. eigenvalues --  -10.34962 -10.34209 -10.34188 -10.33220 -10.32728
  Beta  occ. eigenvalues --  -10.32710 -10.32523 -10.32196 -10.32189 -10.32168
  Beta  occ. eigenvalues --  -10.32156 -10.32089 -10.32077 -10.32066 -10.32019
  Beta  occ. eigenvalues --  -10.31914 -10.31838 -10.31617 -10.31442 -10.31385
  Beta  occ. eigenvalues --  -10.31084 -10.30670 -10.30492 -10.30457 -10.30296
  Beta  occ. eigenvalues --  -10.30056 -10.30024 -10.29703 -10.29509  -3.56468
  Beta  occ. eigenvalues --   -2.30815  -2.30760  -2.30740  -1.24384  -1.23395
  Beta  occ. eigenvalues --   -1.16220  -1.15930  -1.09979  -1.09842  -1.08383
  Beta  occ. eigenvalues --   -1.07455  -1.07442  -1.06514  -1.01610  -1.01460
  Beta  occ. eigenvalues --   -0.93927  -0.92303  -0.91934  -0.91716  -0.91372
  Beta  occ. eigenvalues --   -0.91173  -0.90994  -0.90671  -0.90578  -0.87780
  Beta  occ. eigenvalues --   -0.87049  -0.86264  -0.85981  -0.85613  -0.83239
  Beta  occ. eigenvalues --   -0.81742  -0.81521  -0.81103  -0.80780  -0.80060
  Beta  occ. eigenvalues --   -0.78694  -0.77663  -0.77129  -0.76066  -0.75865
  Beta  occ. eigenvalues --   -0.75552  -0.75268  -0.74536  -0.72641  -0.72467
  Beta  occ. eigenvalues --   -0.72387  -0.70040  -0.69188  -0.69050  -0.69023
  Beta  occ. eigenvalues --   -0.66470  -0.66225  -0.65247  -0.64415  -0.63800
  Beta  occ. eigenvalues --   -0.63199  -0.62526  -0.62143  -0.61558  -0.60415
  Beta  occ. eigenvalues --   -0.60326  -0.59064  -0.58559  -0.58476  -0.58398
  Beta  occ. eigenvalues --   -0.58156  -0.57788  -0.57651  -0.57568  -0.57421
  Beta  occ. eigenvalues --   -0.56497  -0.56173  -0.55727  -0.55087  -0.54705
  Beta  occ. eigenvalues --   -0.54510  -0.54307  -0.54004  -0.53697  -0.53543
  Beta  occ. eigenvalues --   -0.53487  -0.53197  -0.53156  -0.52948  -0.52746
  Beta  occ. eigenvalues --   -0.52569  -0.52374  -0.52349  -0.52208  -0.52013
  Beta  occ. eigenvalues --   -0.51545  -0.51353  -0.51117  -0.50913  -0.50860
  Beta  occ. eigenvalues --   -0.50384  -0.50155  -0.50018  -0.49793  -0.49593
  Beta  occ. eigenvalues --   -0.49183  -0.48709  -0.48587  -0.48255  -0.48047
  Beta  occ. eigenvalues --   -0.47556  -0.47432  -0.47276  -0.46706  -0.46541
  Beta  occ. eigenvalues --   -0.46247  -0.46048  -0.45717  -0.45232  -0.45031
  Beta  occ. eigenvalues --   -0.44601  -0.44010  -0.43889  -0.43193  -0.42966
  Beta  occ. eigenvalues --   -0.42606  -0.42427  -0.41870  -0.41448  -0.40604
  Beta  occ. eigenvalues --   -0.40379  -0.39837  -0.39358  -0.39019  -0.38789
  Beta  occ. eigenvalues --   -0.37621  -0.36849  -0.34880  -0.34826  -0.34500
  Beta  occ. eigenvalues --   -0.34311  -0.33270  -0.32979  -0.32254  -0.31944
  Beta  occ. eigenvalues --   -0.29844  -0.29279
  Beta virt. eigenvalues --   -0.19658  -0.19502  -0.17753  -0.16448  -0.16219
  Beta virt. eigenvalues --   -0.12043  -0.11345  -0.10523  -0.09312  -0.09033
  Beta virt. eigenvalues --   -0.08279  -0.08218  -0.07860  -0.07510  -0.06702

 Mulliken charges and spin densities:
               1          2
     1  C   -0.351196   0.001126
     2  C    0.116589   0.005118
     3  N   -0.200575   0.004800
     4  C   -0.179453   0.002936
     5  C    0.019027   0.014605
     6  N    0.132166   0.039629
     7  H    0.159742   0.000120
     8  H    0.127325   0.000209
     9  H    0.256704   0.001412
    10  H    0.169645   0.000668
    11  H    0.196396   0.000311
    12  C   -0.374010   0.000945
    13  C    0.149860   0.004792
    14  N   -0.201091   0.004449
    15  C   -0.194075   0.001928
    16  C    0.026217   0.013520
    17  N    0.097306   0.036638
    18  H    0.141559   0.000209
    19  H    0.151776   0.000050
    20  H    0.263820   0.001418
    21  H    0.161653   0.000545
    22  H    0.184902   0.000258
    23  C   -0.518299  -0.019179
    24  C   -0.607136  -0.018506
    25  C   -0.516046  -0.018967
    26  C   -0.591964  -0.010888
    27  C    0.271683   0.018211
    28  C   -0.017804   0.016338
    29  C   -0.000480   0.017725
    30  C    0.288506   0.014587
    31  C   -0.430561   0.000552
    32  C   -0.312330  -0.000494
    33  C   -0.241840   0.000523
    34  C    0.299165   0.000059
    35  O   -0.324114  -0.000008
    36  O   -0.347472   0.000028
    37  C    0.247427   0.012980
    38  C   -0.095058   0.015003
    39  C    0.042713   0.014961
    40  C    0.285934   0.017105
    41  C   -0.382824   0.000093
    42  C   -0.235738  -0.004379
    43  C   -0.273735   0.007351
    44  C    0.309813   0.015927
    45  C   -0.153798   0.010432
    46  C    0.148693   0.017483
    47  C    0.111881   0.011811
    48  C   -0.397677   0.000830
    49  C   -0.255890  -0.003102
    50  C   -0.244038   0.006373
    51  C    0.290109   0.008117
    52  C   -0.048779   0.016204
    53  C   -0.016964   0.009515
    54  C    0.334950   0.019030
    55  C   -0.437285   0.000714
    56  C   -0.356032   0.000590
    57  C   -0.248805   0.000343
    58  C    0.334382   0.000050
    59  O   -0.306080   0.000010
    60  O   -0.348221   0.000154
    61  N   -0.107007   0.063403
    62  N   -0.071174   0.063141
    63  N   -0.077607   0.071438
    64  N   -0.087411   0.063932
    65  Fe  -0.027923   4.418011
    66  H    0.135493   0.000319
    67  H    0.132386   0.000147
    68  H    0.127060  -0.000036
    69  H    0.127624   0.000497
    70  H    0.123057   0.000309
    71  H    0.138170  -0.000028
    72  H    0.161957   0.000672
    73  H    0.134520  -0.000032
    74  H    0.156885   0.000712
    75  H    0.128363   0.000561
    76  H    0.161784   0.000416
    77  H    0.132308  -0.000004
    78  H    0.111521  -0.000011
    79  H    0.136606   0.000404
    80  H    0.169738   0.000421
    81  H    0.147028   0.000618
    82  H    0.146256  -0.000390
    83  H    0.144726  -0.000109
    84  H    0.152330   0.000393
    85  H    0.171112   0.000435
    86  H    0.136490   0.000101
    87  H    0.141543  -0.000264
    88  H    0.145888  -0.000107
    89  H    0.161297   0.000622
    90  H    0.170429   0.000492
    91  H    0.135727   0.000087
    92  H    0.101960   0.000046
    93  H    0.153130   0.000307
    94  H    0.131699  -0.000001
    95  H    0.109953   0.000006
    96  H    0.159782   0.000065
    97  H    0.157319   0.000166
    98  H    0.363099   0.000004
    99  H    0.353307  -0.000002
 Sum of Mulliken charges =   1.00000   5.00000

 Dipole moment (field-independent basis, Debye):
    X=             -7.1705    Y=              3.6364    Z=              2.2330  Tot=              8.3442
 Quadrupole moment (field-independent basis, Debye-Ang):
   XX=           -299.2439   YY=           -286.8359   ZZ=           -238.2900
   XY=              5.5764   XZ=             20.7198   YZ=             15.0309

 Summary of Natural Population Analysis:

                                       Natural Population
                Natural  -----------------------------------------------
    Atom  No    Charge         Core      Valence    Rydberg      Total
 -----------------------------------------------------------------------
      C    1   -0.32081      0.99970     2.31761    0.00350     3.32081
      C    2    0.06347      0.99955     1.92818    0.00879     2.93653
      N    3   -0.23325      0.99968     2.72401    0.00956     3.73325
      C    4   -0.02945      0.99945     2.02152    0.00847     3.02945
      C    5    0.11923      0.99964     1.87083    0.01030     2.88077
      N    6   -0.17147      0.99970     2.65033    0.02144     3.67147
      H    7    0.11993      0.00000     0.37943    0.00064     0.38007
      H    8    0.11098      0.00000     0.38842    0.00060     0.38902
      H    9    0.21668      0.00000     0.28250    0.00082     0.28332
      H   10    0.12046      0.00000     0.37883    0.00071     0.37954
      H   11    0.11688      0.00000     0.38235    0.00077     0.38312
      C   12   -0.32111      0.99970     2.31553    0.00588     3.32111
      C   13    0.06347      0.99954     1.92849    0.00850     2.93653
      N   14   -0.23510      0.99968     2.72608    0.00934     3.73510
      C   15   -0.03078      0.99944     2.02242    0.00891     3.03078
      C   16    0.11944      0.99965     1.87076    0.01015     2.88056
      N   17   -0.17396      0.99971     2.65267    0.02157     3.67396
      H   18    0.11393      0.00000     0.38548    0.00058     0.38607
      H   19    0.12043      0.00000     0.37917    0.00040     0.37957
      H   20    0.21888      0.00000     0.28031    0.00080     0.28112
      H   21    0.12060      0.00000     0.37864    0.00077     0.37940
      H   22    0.11583      0.00000     0.38337    0.00080     0.38417
      C   23   -0.11059      0.99949     2.10343    0.00767     3.11059
      C   24   -0.11769      0.99943     2.11069    0.00757     3.11769
      C   25   -0.11223      0.99948     2.10516    0.00760     3.11223
      C   26   -0.12479      0.99945     2.11790    0.00745     3.12479
      C   27    0.08955      0.99950     1.90107    0.00988     2.91045
      C   28   -0.00052      0.99947     1.99177    0.00928     3.00052
      C   29    0.01074      0.99931     1.97923    0.01072     2.98926
      C   30    0.08098      0.99951     1.90899    0.01052     2.91902
      C   31   -0.32503      0.99971     2.32132    0.00399     3.32503
      C   32   -0.21968      0.99968     2.21217    0.00783     3.21968
      C   33   -0.25437      0.99964     2.24631    0.00843     3.25437
      C   34    0.38632      0.99975     1.59628    0.01764     2.61368
      O   35   -0.27956      0.99989     3.26794    0.01172     4.27956
      O   36   -0.34132      0.99979     3.32667    0.01487     4.34132
      C   37    0.08342      0.99950     1.90724    0.00984     2.91658
      C   38    0.01153      0.99945     1.98060    0.00842     2.98847
      C   39   -0.02899      0.99944     2.01939    0.01016     3.02899
      C   40    0.09448      0.99949     1.89605    0.00998     2.90552
      C   41   -0.32656      0.99971     2.32061    0.00624     3.32656
      C   42   -0.10429      0.99956     2.09539    0.00934     3.10429
      C   43   -0.18492      0.99956     2.17661    0.00875     3.18492
      C   44    0.08778      0.99949     1.90279    0.00993     2.91222
      C   45    0.00697      0.99946     1.98542    0.00815     2.99303
      C   46   -0.03181      0.99942     2.02248    0.00990     3.03181
      C   47    0.07924      0.99951     1.91115    0.01011     2.92076
      C   48   -0.32573      0.99971     2.31953    0.00648     3.32573
      C   49   -0.11016      0.99960     2.10174    0.00882     3.11016
      C   50   -0.17663      0.99962     2.16927    0.00774     3.17663
      C   51    0.07452      0.99952     1.91509    0.01088     2.92548
      C   52    0.00846      0.99932     1.98166    0.01056     2.99154
      C   53   -0.00935      0.99946     2.00036    0.00953     3.00935
      C   54    0.09019      0.99951     1.90046    0.00985     2.90981
      C   55   -0.32617      0.99972     2.32034    0.00611     3.32617
      C   56   -0.21206      0.99967     2.20560    0.00679     3.21206
      C   57   -0.25224      0.99965     2.24372    0.00888     3.25224
      C   58    0.38173      0.99974     1.60092    0.01761     2.61827
      O   59   -0.32264      0.99980     3.30760    0.01525     4.32264
      O   60   -0.28248      0.99989     3.27058    0.01201     4.28248
      N   61   -0.18958      0.99969     2.66845    0.02144     3.68958
      N   62   -0.17989      0.99969     2.65898    0.02123     3.67989
      N   63   -0.18816      0.99969     2.66749    0.02097     3.68816
      N   64   -0.18265      0.99968     2.66132    0.02165     3.68265
     Fe   65    2.45523      8.99567     1.50584    0.04326    10.54477
      H   66    0.11967      0.00000     0.37901    0.00132     0.38033
      H   67    0.11885      0.00000     0.38004    0.00112     0.38115
      H   68    0.11994      0.00000     0.37885    0.00121     0.38006
      H   69    0.10727      0.00000     0.39179    0.00094     0.39273
      H   70    0.10430      0.00000     0.39481    0.00089     0.39570
      H   71    0.11437      0.00000     0.38455    0.00108     0.38563
      H   72    0.11872      0.00000     0.38059    0.00069     0.38128
      H   73    0.11079      0.00000     0.38869    0.00052     0.38921
      H   74    0.11775      0.00000     0.38156    0.00069     0.38225
      H   75    0.11201      0.00000     0.38720    0.00079     0.38799
      H   76    0.12647      0.00000     0.37279    0.00074     0.37353
      H   77    0.11966      0.00000     0.37966    0.00068     0.38034
      H   78    0.10703      0.00000     0.39229    0.00067     0.39297
      H   79    0.11127      0.00000     0.38810    0.00063     0.38873
      H   80    0.12419      0.00000     0.37514    0.00067     0.37581
      H   81    0.11608      0.00000     0.38327    0.00064     0.38392
      H   82    0.10345      0.00000     0.39555    0.00101     0.39655
      H   83    0.10393      0.00000     0.39545    0.00062     0.39607
      H   84    0.11582      0.00000     0.38348    0.00071     0.38418
      H   85    0.12218      0.00000     0.37713    0.00070     0.37782
      H   86    0.11175      0.00000     0.38772    0.00054     0.38825
      H   87    0.10025      0.00000     0.39899    0.00076     0.39975
      H   88    0.10601      0.00000     0.39335    0.00064     0.39399
      H   89    0.11573      0.00000     0.38357    0.00070     0.38427
      H   90    0.11856      0.00000     0.38081    0.00063     0.38144
      H   91    0.11143      0.00000     0.38809    0.00048     0.38857
      H   92    0.10490      0.00000     0.39422    0.00088     0.39510
      H   93    0.12071      0.00000     0.37839    0.00090     0.37929
      H   94    0.11953      0.00000     0.37975    0.00072     0.38047
      H   95    0.09776      0.00000     0.40135    0.00090     0.40224
      H   96    0.12096      0.00000     0.37847    0.00057     0.37904
      H   97    0.11698      0.00000     0.38238    0.00064     0.38302
      H   98    0.26181      0.00000     0.23707    0.00112     0.23819
      H   99    0.25463      0.00000     0.24429    0.00108     0.24537
 =======================================================================
   * Total *    3.00005     62.97374   138.37097    0.65524   201.99995

 Normal termination of Gaussian 16 at Wed Oct 19 20:26:20 2022.
