 Gaussian 16, Revision A.03,
 Gaussian 16:  ES64L-G16RevA.03 25-Dec-2016

 ----------------------------------------------------------------------
 # PBE1PBE/def2TZVP empiricaldispersion=GD3BJ int=(grid=ultrafine) geom
 =check pop=nbo
 ----------------------------------------------------------------------

 ----------
 1ccc_III_H
 ----------
 Structure from the checkpoint file:  "1ccc_III_H.chk"
 Charge =  1 Multiplicity = 6

                         Standard orientation:
 ---------------------------------------------------------------------
 Center     Atomic      Atomic             Coordinates (Angstroms)
 Number     Number       Type             X           Y           Z
 ---------------------------------------------------------------------
      1          6           0       -1.547530   -1.837054    4.949256
      2          6           0       -1.462943   -0.893093    3.739090
      3          7           0       -1.679353    0.414183    3.682111
      4          6           0       -1.149798   -1.245063    2.453674
      5          6           0       -1.482546    0.849800    2.461598
      6          7           0       -1.160336   -0.166263    1.706734
      7          1           0       -2.105947    0.950743    4.369426
      8          6           0        2.365700    0.117175    0.214107
      9          6           0       -0.987526    3.552141   -0.268529
     10          6           0       -4.245136    0.086681   -0.645663
     11          6           0       -0.857484   -3.268428   -0.704938
     12          6           0        1.751825    1.376080    0.127651
     13          6           0        2.452341    2.545737    0.134488
     14          6           0        1.487584    3.563920    0.024458
     15          6           0        0.262684    2.927896   -0.096125
     16          6           0        1.699946    5.083216   -0.029930
     17          6           0        3.975586    2.588636    0.214874
     18          6           0        4.700572    2.840813   -1.080640
     19          6           0        6.225813    2.876431   -0.927693
     20          8           0        6.780855    3.820675   -0.382614
     21          8           0        6.936509    1.984812   -1.364673
     22          6           0       -2.245782    2.911520   -0.316536
     23          6           0       -3.493064    3.558074   -0.319238
     24          6           0       -4.433426    2.526747   -0.359110
     25          6           0       -3.692890    1.347268   -0.429632
     26          6           0       -3.687338    5.057385   -0.173680
     27          6           0       -5.836771    2.507417   -0.342000
     28          6           0       -6.753546    3.596043   -0.246116
     29          6           0       -3.639398   -1.165648   -0.772504
     30          6           0       -4.316472   -2.331932   -1.128158
     31          6           0       -3.291824   -3.280040   -1.267304
     32          6           0       -2.104107   -2.657063   -0.852700
     33          6           0       -5.837794   -2.461509   -1.362844
     34          6           0       -3.353638   -4.625829   -1.636344
     35          6           0       -4.505618   -5.516625   -1.574151
     36          6           0        0.356856   -2.670600   -0.374476
     37          6           0        1.503889   -3.349832   -0.002299
     38          6           0        2.440799   -2.364601    0.278161
     39          6           0        1.795289   -1.149020    0.055414
     40          6           0        1.732368   -4.841441    0.083919
     41          6           0        3.903353   -2.581971    0.689622
     42          6           0        4.853533   -2.665186   -0.511402
     43          6           0        6.328586   -2.717643   -0.153539
     44          8           0        7.162869   -2.216921   -0.881969
     45          8           0        6.657365   -3.269643    0.882567
     46          7           0        0.430962    1.603852   -0.012781
     47          7           0       -2.398077    1.586678   -0.291281
     48          7           0       -2.320157   -1.375634   -0.575019
     49          7           0        0.536421   -1.348815   -0.316954
     50         26           0       -0.954770    0.108135   -0.267683
     51          8           0       -0.717058    0.424262   -2.084194
     52          1           0       -1.356462   -2.841069    4.632480
     53          1           0       -2.525535   -1.778773    5.379383
     54          1           0       -0.819474   -1.548419    5.678313
     55          1           0       -0.932359   -2.236198    2.114157
     56          1           0       -1.570908    1.865962    2.138325
     57          1           0       -0.956802   -0.128542    0.728393
     58          1           0        3.413405    0.127998    0.431125
     59          1           0       -0.984329    4.616968   -0.373570
     60          1           0       -5.311889    0.075917   -0.728263
     61          1           0       -0.831584   -4.326042   -0.865192
     62          1           0        0.872706    5.541280   -0.530680
     63          1           0        1.772419    5.469079    0.965438
     64          1           0        2.602743    5.298323   -0.562459
     65          1           0        4.270881    1.605841    0.517883
     66          1           0        4.202759    3.430541    0.834946
     67          1           0        4.413472    3.823597   -1.391460
     68          1           0        4.487556    1.998563   -1.705251
     69          1           0       -4.306292    5.415759   -0.969521
     70          1           0       -4.156395    5.266792    0.764955
     71          1           0       -2.736189    5.545849   -0.213928
     72          1           0       -6.282743    1.537217   -0.410717
     73          1           0       -6.387568    4.598906   -0.173827
     74          1           0       -7.807208    3.409769   -0.246482
     75          1           0       -6.515196   -3.273287   -1.198397
     76          1           0       -5.482399   -3.145513   -2.104957
     77          1           0       -5.816828   -2.499529   -0.293725
     78          1           0       -2.446765   -5.054033   -2.009334
     79          1           0       -4.689316   -5.930344   -2.543683
     80          1           0       -5.365052   -4.966335   -1.252507
     81          1           0        2.669530   -5.085604   -0.371066
     82          1           0        1.745573   -5.141471    1.110909
     83          1           0        0.943745   -5.353189   -0.427049
     84          1           0        3.938450   -3.541531    1.161759
     85          1           0        4.190727   -1.706918    1.234231
     86          1           0        4.719628   -1.749769   -1.048972
     87          1           0        4.638323   -3.600177   -0.985087
     88          1           0       -1.207105   -0.228570   -2.589433
     89          1           0        7.573708    4.199646   -0.769092
     90          1           0        7.059662   -4.140864    0.855550
 ---------------------------------------------------------------------

 SCF Done:  E(UPBE1PBE) =  -3437.87759122     A.U. after   47 cycles

 Alpha virt. eigenvalues --    0.60307   0.60445   0.60853   0.61103   0.61414
 Alpha virt. eigenvalues --    0.61697   0.61843   0.62250   0.62535   0.62769
 Alpha virt. eigenvalues --    0.63019   0.63181   0.63513   0.63696   0.64178

  Beta  occ. eigenvalues -- -256.53465 -30.26660 -26.10040 -26.09787 -26.09536
  Beta  occ. eigenvalues --  -19.31520 -19.31300 -19.28189 -19.23598 -19.22852
  Beta  occ. eigenvalues --  -14.61870 -14.61307 -14.48845 -14.47446 -14.47131
  Beta  occ. eigenvalues --  -14.47077 -10.46172 -10.42457 -10.40497 -10.40483
  Beta  occ. eigenvalues --  -10.40465 -10.38433 -10.36278 -10.36196 -10.36055
  Beta  occ. eigenvalues --  -10.35425 -10.35136 -10.35073 -10.35000 -10.34960
  Beta  occ. eigenvalues --  -10.34791 -10.33963 -10.33445 -10.32991 -10.32902
  Beta  occ. eigenvalues --  -10.32858 -10.32853 -10.32832 -10.32592 -10.32307
  Beta  occ. eigenvalues --  -10.32135 -10.32073 -10.31942 -10.31856 -10.31375
  Beta  occ. eigenvalues --  -10.31290 -10.31106 -10.30757 -10.30754 -10.30473
  Beta  occ. eigenvalues --  -10.30443 -10.30421 -10.30135 -10.29441  -3.58884
  Beta  occ. eigenvalues --   -2.37450  -2.31871  -2.31761  -1.27886  -1.24458
  Beta  occ. eigenvalues --   -1.24340  -1.14640  -1.11932  -1.10845  -1.10641
  Beta  occ. eigenvalues --   -1.09726  -1.09644  -1.08705  -1.05332  -0.97647
  Beta  occ. eigenvalues --   -0.96326  -0.95137  -0.93520  -0.93094  -0.92959
  Beta  occ. eigenvalues --   -0.92353  -0.92083  -0.90607  -0.89633  -0.88361
  Beta  occ. eigenvalues --   -0.88115  -0.87978  -0.86348  -0.86222  -0.84269
  Beta  occ. eigenvalues --   -0.83974  -0.82241  -0.81679  -0.81343  -0.80571
  Beta  occ. eigenvalues --   -0.77993  -0.77858  -0.77115  -0.76781  -0.75532
  Beta  occ. eigenvalues --   -0.73964  -0.73383  -0.73074  -0.72979  -0.71978
  Beta  occ. eigenvalues --   -0.70150  -0.69726  -0.67283  -0.66800  -0.66483
  Beta  occ. eigenvalues --   -0.65429  -0.64964  -0.64474  -0.63601  -0.63469
  Beta  occ. eigenvalues --   -0.62913  -0.60926  -0.60721  -0.60452  -0.60073
  Beta  occ. eigenvalues --   -0.59872  -0.59227  -0.58459  -0.58220  -0.58001
  Beta  occ. eigenvalues --   -0.57512  -0.57262  -0.57069  -0.56851  -0.56531
  Beta  occ. eigenvalues --   -0.56061  -0.55677  -0.55464  -0.55234  -0.54970
  Beta  occ. eigenvalues --   -0.54567  -0.54043  -0.53871  -0.53840  -0.53384
  Beta  occ. eigenvalues --   -0.53344  -0.53230  -0.52850  -0.52381  -0.52096
  Beta  occ. eigenvalues --   -0.51507  -0.51421  -0.51249  -0.51083  -0.50561
  Beta  occ. eigenvalues --   -0.50397  -0.50155  -0.50032  -0.49214  -0.48662
  Beta  occ. eigenvalues --   -0.48270  -0.47998  -0.47786  -0.47484  -0.47134
  Beta  occ. eigenvalues --   -0.46681  -0.46317  -0.45947  -0.45495  -0.45299
  Beta  occ. eigenvalues --   -0.45185  -0.44147  -0.43694  -0.43481  -0.42768
  Beta  occ. eigenvalues --   -0.42533  -0.42139  -0.41593  -0.41344  -0.40748
  Beta  occ. eigenvalues --   -0.40271  -0.39576  -0.39381  -0.38547  -0.38460
  Beta  occ. eigenvalues --   -0.37515  -0.34667  -0.34349  -0.34033  -0.33119
  Beta  occ. eigenvalues --   -0.33022  -0.31464  -0.30553  -0.30015  -0.29191
  Beta virt. eigenvalues --   -0.23746  -0.22876  -0.19289  -0.18793  -0.18239
  Beta virt. eigenvalues --   -0.17093  -0.14920  -0.14428  -0.11833  -0.11665
  Beta virt. eigenvalues --   -0.10805  -0.10427  -0.09154  -0.08758  -0.07280

 Mulliken charges and spin densities:
               1          2
     1  C   -0.344810   0.001530
     2  C    0.152311   0.009245
     3  N   -0.164248   0.002966
     4  C   -0.179684   0.001671
     5  C    0.077514   0.006746
     6  N    0.221070   0.102694
     7  H    0.260190   0.001086
     8  C   -0.438627  -0.006754
     9  C   -0.442705  -0.009146
    10  C   -0.515313  -0.018655
    11  C   -0.490047  -0.000777
    12  C    0.322459   0.010924
    13  C    0.056357   0.016954
    14  C   -0.065488   0.035851
    15  C    0.278729  -0.001595
    16  C   -0.385902   0.000095
    17  C   -0.417972   0.000277
    18  C   -0.071751   0.000779
    19  C    0.217327   0.000045
    20  O   -0.326969   0.000008
    21  O   -0.330279   0.000191
    22  C    0.257872   0.002602
    23  C   -0.116305   0.013754
    24  C    0.045211   0.001242
    25  C    0.343195   0.011065
    26  C   -0.388993   0.001088
    27  C   -0.159149   0.004379
    28  C   -0.265631  -0.004711
    29  C    0.220101   0.013766
    30  C   -0.212901  -0.014105
    31  C    0.085796   0.059495
    32  C    0.241548  -0.010411
    33  C   -0.559334   0.010090
    34  C   -0.174910  -0.101969
    35  C   -0.291094   0.140135
    36  C    0.210391  -0.003008
    37  C   -0.049412   0.012555
    38  C    0.036039   0.003456
    39  C    0.261734   0.010807
    40  C   -0.389359   0.001160
    41  C   -0.342327   0.000882
    42  C   -0.150559   0.000330
    43  C    0.219121  -0.000113
    44  O   -0.282965   0.000061
    45  O   -0.336230   0.000007
    46  N   -0.024676   0.087164
    47  N   -0.079507   0.079423
    48  N   -0.095343   0.076089
    49  N   -0.025233   0.092059
    50  Fe  -0.185073   3.715646
    51  O   -0.384396   0.621043
    52  H    0.164207   0.000047
    53  H    0.161003   0.000311
    54  H    0.168647   0.000349
    55  H    0.199680   0.002386
    56  H    0.233569   0.000791
    57  H   -0.095129   0.019346
    58  H    0.103047  -0.000612
    59  H    0.101997  -0.000054
    60  H    0.175980  -0.000345
    61  H    0.105718  -0.000471
    62  H    0.140687   0.000268
    63  H    0.156839   0.001664
    64  H    0.141537   0.000713
    65  H    0.118898   0.000061
    66  H    0.133430   0.000456
    67  H    0.100329  -0.000031
    68  H    0.134398  -0.000015
    69  H    0.162367   0.000456
    70  H    0.152222   0.000447
    71  H    0.128608   0.000037
    72  H    0.097241  -0.000070
    73  H    0.142429   0.000200
    74  H    0.153847   0.000362
    75  H    0.278241   0.001185
    76  H    0.237968  -0.001912
    77  H    0.252896   0.000389
    78  H    0.136992   0.005794
    79  H    0.164371  -0.005135
    80  H    0.064434  -0.003594
    81  H    0.142757   0.000106
    82  H    0.152095   0.000658
    83  H    0.139959   0.000047
    84  H    0.115584   0.000487
    85  H    0.121941  -0.000115
    86  H    0.128620   0.000069
    87  H    0.113088  -0.000014
    88  H    0.324415  -0.002376
    89  H    0.364062  -0.000001
    90  H    0.361249   0.000001
 Sum of Mulliken charges =   1.00000   5.00000

 Dipole moment (field-independent basis, Debye):
    X=             -8.0178    Y=             -0.7481    Z=             12.5754  Tot=             14.9327
 Quadrupole moment (field-independent basis, Debye-Ang):
   XX=           -263.2072   YY=           -204.6184   ZZ=           -252.7368
   XY=              4.8824   XZ=             -5.3321   YZ=             -1.7688

 Summary of Natural Population Analysis:

                                       Natural Population
                Natural  -----------------------------------------------
    Atom  No    Charge         Core      Valence    Rydberg      Total
 -----------------------------------------------------------------------
      C    1   -0.31674      0.99969     2.31416    0.00290     3.31674
      C    2    0.08012      0.99957     1.91146    0.00884     2.91988
      N    3   -0.21149      0.99964     2.70192    0.00993     3.71149
      C    4   -0.02195      0.99949     2.01303    0.00943     3.02195
      C    5    0.12382      0.99966     1.86613    0.01039     2.87618
      N    6   -0.10005      0.99960     2.58257    0.01788     3.60005
      H    7    0.21937      0.00000     0.27992    0.00071     0.28063
      C    8   -0.08816      0.99954     2.08082    0.00779     3.08816
      C    9   -0.08995      0.99955     2.08306    0.00734     3.08995
      C   10   -0.09540      0.99954     2.08813    0.00772     3.09540
      C   11   -0.10545      0.99954     2.09825    0.00766     3.10545
      C   12    0.07336      0.99942     1.91740    0.00982     2.92664
      C   13    0.00426      0.99940     1.98692    0.00942     2.99574
      C   14    0.02215      0.99944     1.97038    0.00804     2.97785
      C   15    0.06527      0.99947     1.92501    0.01026     2.93473
      C   16   -0.31770      0.99970     2.31449    0.00351     3.31770
      C   17   -0.20819      0.99966     2.20173    0.00679     3.20819
      C   18   -0.24313      0.99963     2.23506    0.00843     3.24313
      C   19    0.37823      0.99978     1.60179    0.02021     2.62177
      O   20   -0.33302      0.99978     3.31852    0.01473     4.33302
      O   21   -0.29109      0.99988     3.27791    0.01330     4.29109
      C   22    0.06724      0.99950     1.92280    0.01046     2.93276
      C   23    0.01755      0.99947     1.97482    0.00817     2.98245
      C   24   -0.05076      0.99945     2.04156    0.00974     3.05076
      C   25    0.08473      0.99950     1.90538    0.01039     2.91527
      C   26   -0.31827      0.99970     2.31486    0.00372     3.31827
      C   27   -0.10222      0.99964     2.09549    0.00710     3.10222
      C   28   -0.17225      0.99972     2.16695    0.00558     3.17225
      C   29    0.05482      0.99943     1.93513    0.01062     2.94518
      C   30    0.04819      0.99925     1.94150    0.01107     2.95181
      C   31   -0.06158      0.99943     2.05228    0.00988     3.06158
      C   32    0.08548      0.99952     1.90466    0.01035     2.91452
      C   33   -0.59992      0.99952     2.57077    0.02963     3.59992
      C   34   -0.10890      0.99964     2.10024    0.00902     3.10890
      C   35   -0.14903      0.99951     2.13931    0.01021     3.14903
      C   36    0.06654      0.99946     1.92356    0.01045     2.93346
      C   37   -0.00410      0.99942     1.99633    0.00835     3.00410
      C   38    0.00303      0.99943     1.98835    0.00919     2.99697
      C   39    0.06752      0.99948     1.92277    0.01023     2.93248
      C   40   -0.31808      0.99970     2.31457    0.00381     3.31808
      C   41   -0.21340      0.99968     2.20667    0.00705     3.21340
      C   42   -0.25092      0.99964     2.24273    0.00855     3.25092
      C   43    0.37890      0.99976     1.60157    0.01977     2.62110
      O   44   -0.26825      0.99988     3.25533    0.01304     4.26825
      O   45   -0.34301      0.99977     3.32748    0.01576     4.34301
      N   46   -0.16382      0.99965     2.64400    0.02017     3.66382
      N   47   -0.17350      0.99963     2.65159    0.02229     3.67350
      N   48   -0.17474      0.99966     2.65607    0.01901     3.67474
      N   49   -0.16519      0.99964     2.64358    0.02197     3.66519
     Fe   50    2.03654      8.96875     1.96619    0.02853    10.96346
      O   51    0.04145      0.99992     2.95123    0.00740     3.95855
      H   52    0.12434      0.00000     0.37524    0.00042     0.37566
      H   53    0.11918      0.00000     0.38025    0.00057     0.38082
      H   54    0.12118      0.00000     0.37826    0.00056     0.37882
      H   55    0.13228      0.00000     0.36699    0.00072     0.36772
      H   56    0.13474      0.00000     0.36446    0.00080     0.36526
      H   57    0.14941      0.00000     0.34598    0.00462     0.35059
      H   58    0.10628      0.00000     0.39221    0.00151     0.39372
      H   59    0.11015      0.00000     0.38838    0.00147     0.38985
      H   60    0.11931      0.00000     0.37931    0.00138     0.38069
      H   61    0.11100      0.00000     0.38770    0.00130     0.38900
      H   62    0.11124      0.00000     0.38818    0.00059     0.38876
      H   63    0.11575      0.00000     0.38355    0.00070     0.38425
      H   64    0.11457      0.00000     0.38464    0.00079     0.38543
      H   65    0.10799      0.00000     0.39106    0.00095     0.39201
      H   66    0.11606      0.00000     0.38303    0.00091     0.38394
      H   67    0.11117      0.00000     0.38785    0.00097     0.38883
      H   68    0.12151      0.00000     0.37764    0.00084     0.37849
      H   69    0.11839      0.00000     0.38074    0.00086     0.38161
      H   70    0.11556      0.00000     0.38357    0.00086     0.38444
      H   71    0.10925      0.00000     0.39018    0.00057     0.39075
      H   72    0.10219      0.00000     0.39685    0.00096     0.39781
      H   73    0.09639      0.00000     0.40278    0.00084     0.40361
      H   74    0.10528      0.00000     0.39412    0.00060     0.39472
      H   75    0.20457      0.00000     0.29468    0.00075     0.29543
      H   76    0.21437      0.00000     0.28321    0.00243     0.28563
      H   77    0.21216      0.00000     0.28670    0.00114     0.28784
      H   78    0.10493      0.00000     0.39424    0.00082     0.39507
      H   79    0.10741      0.00000     0.39179    0.00080     0.39259
      H   80    0.07701      0.00000     0.42169    0.00129     0.42299
      H   81    0.11381      0.00000     0.38538    0.00081     0.38619
      H   82    0.11480      0.00000     0.38446    0.00073     0.38520
      H   83    0.11208      0.00000     0.38735    0.00057     0.38792
      H   84    0.11402      0.00000     0.38505    0.00093     0.38598
      H   85    0.11051      0.00000     0.38856    0.00093     0.38949
      H   86    0.11925      0.00000     0.37988    0.00087     0.38075
      H   87    0.11383      0.00000     0.38532    0.00085     0.38617
      H   88    0.22765      0.00000     0.27065    0.00169     0.27235
      H   89    0.26129      0.00000     0.23742    0.00128     0.23871
      H   90    0.26079      0.00000     0.23802    0.00118     0.23921
 =======================================================================
   * Total *    3.00000     57.94871   126.44379    0.60750   185.00000

 Normal termination of Gaussian 16 at Sat Oct  1 06:12:08 2022.
