 Gaussian 16, Revision A.03,
 Gaussian 16:  ES64L-G16RevA.03 25-Dec-2016

 ----------------------------------------------------------------------
 # PBE1PBE/def2TZVP empiricaldispersion=GD3BJ int=(grid=ultrafine) geom
 =check guess=read pop=nbo
 ----------------------------------------------------------------------

 -------------
 1ccc_II_S_nbo
 -------------
 Structure from the checkpoint file:  "1ccc_II_S.chk"
 Charge =  0 Multiplicity = 1

                         Standard orientation:
 ---------------------------------------------------------------------
 Center     Atomic      Atomic             Coordinates (Angstroms)
 Number     Number       Type             X           Y           Z
 ---------------------------------------------------------------------
      1          6           0       -1.547530   -1.837054    4.949256
      2          6           0       -1.462943   -0.893093    3.739090
      3          7           0       -1.679353    0.414183    3.682111
      4          6           0       -1.149798   -1.245063    2.453674
      5          6           0       -1.482546    0.849800    2.461598
      6          7           0       -1.160336   -0.166263    1.706734
      7          1           0       -2.105947    0.950743    4.369426
      8          6           0        2.365700    0.117175    0.214107
      9          6           0       -0.987526    3.552141   -0.268529
     10          6           0       -4.245136    0.086681   -0.645663
     11          6           0       -0.857484   -3.268428   -0.704938
     12          6           0        1.751825    1.376080    0.127651
     13          6           0        2.452341    2.545737    0.134488
     14          6           0        1.487584    3.563920    0.024458
     15          6           0        0.262684    2.927896   -0.096125
     16          6           0        1.699946    5.083216   -0.029930
     17          6           0        3.975586    2.588636    0.214874
     18          6           0        4.700572    2.840813   -1.080640
     19          6           0        6.225813    2.876431   -0.927693
     20          8           0        6.780855    3.820675   -0.382614
     21          8           0        6.936509    1.984812   -1.364673
     22          6           0       -2.245782    2.911520   -0.316536
     23          6           0       -3.493064    3.558074   -0.319238
     24          6           0       -4.433426    2.526747   -0.359110
     25          6           0       -3.692890    1.347268   -0.429632
     26          6           0       -3.687338    5.057385   -0.173680
     27          6           0       -5.836771    2.507417   -0.342000
     28          6           0       -6.753546    3.596043   -0.246116
     29          6           0       -3.639398   -1.165648   -0.772504
     30          6           0       -4.316472   -2.331932   -1.128158
     31          6           0       -3.291824   -3.280040   -1.267304
     32          6           0       -2.104107   -2.657063   -0.852700
     33          6           0       -5.837794   -2.461509   -1.362844
     34          6           0       -3.353638   -4.625829   -1.636344
     35          6           0       -4.505618   -5.516625   -1.574151
     36          6           0        0.356856   -2.670600   -0.374476
     37          6           0        1.503889   -3.349832   -0.002299
     38          6           0        2.440799   -2.364601    0.278161
     39          6           0        1.795289   -1.149020    0.055414
     40          6           0        1.732368   -4.841441    0.083919
     41          6           0        3.903353   -2.581971    0.689622
     42          6           0        4.853533   -2.665186   -0.511402
     43          6           0        6.328586   -2.717643   -0.153539
     44          8           0        7.162869   -2.216921   -0.881969
     45          8           0        6.657365   -3.269643    0.882567
     46          7           0        0.430962    1.603852   -0.012781
     47          7           0       -2.398077    1.586678   -0.291281
     48          7           0       -2.320157   -1.375634   -0.575019
     49          7           0        0.536421   -1.348815   -0.316954
     50         26           0       -0.954770    0.108135   -0.267683
     51          8           0       -0.717058    0.424262   -2.084194
     52          1           0       -1.356462   -2.841069    4.632480
     53          1           0       -2.525535   -1.778773    5.379383
     54          1           0       -0.819474   -1.548419    5.678313
     55          1           0       -0.932359   -2.236198    2.114157
     56          1           0       -1.570908    1.865962    2.138325
     57          1           0       -0.956802   -0.128542    0.728393
     58          1           0        3.413405    0.127998    0.431125
     59          1           0       -0.984329    4.616968   -0.373570
     60          1           0       -5.311889    0.075917   -0.728263
     61          1           0       -0.831584   -4.326042   -0.865192
     62          1           0        0.872706    5.541280   -0.530680
     63          1           0        1.772419    5.469079    0.965438
     64          1           0        2.602743    5.298323   -0.562459
     65          1           0        4.270881    1.605841    0.517883
     66          1           0        4.202759    3.430541    0.834946
     67          1           0        4.413472    3.823597   -1.391460
     68          1           0        4.487556    1.998563   -1.705251
     69          1           0       -4.306292    5.415759   -0.969521
     70          1           0       -4.156395    5.266792    0.764955
     71          1           0       -2.736189    5.545849   -0.213928
     72          1           0       -6.282743    1.537217   -0.410717
     73          1           0       -6.387568    4.598906   -0.173827
     74          1           0       -7.807208    3.409769   -0.246482
     75          1           0       -6.515196   -3.273287   -1.198397
     76          1           0       -5.482399   -3.145513   -2.104957
     77          1           0       -5.816828   -2.499529   -0.293725
     78          1           0       -2.446765   -5.054033   -2.009334
     79          1           0       -4.689316   -5.930344   -2.543683
     80          1           0       -5.365052   -4.966335   -1.252507
     81          1           0        2.669530   -5.085604   -0.371066
     82          1           0        1.745573   -5.141471    1.110909
     83          1           0        0.943745   -5.353189   -0.427049
     84          1           0        3.938450   -3.541531    1.161759
     85          1           0        4.190727   -1.706918    1.234231
     86          1           0        4.719628   -1.749769   -1.048972
     87          1           0        4.638323   -3.600177   -0.985087
     88          1           0       -1.207105   -0.228570   -2.589433
     89          1           0        7.573708    4.199646   -0.769092
     90          1           0        7.059662   -4.140864    0.855550
 ---------------------------------------------------------------------

 SCF Done:  E(RPBE1PBE) =  -3438.10478427     A.U. after   18 cycles

 The electronic state is 1-A.
 Alpha  occ. eigenvalues -- -256.30888 -30.07257 -25.90083 -25.89836 -25.89642
 Alpha  occ. eigenvalues --  -19.24833 -19.24609 -19.16717 -19.15876 -19.09597
 Alpha  occ. eigenvalues --  -14.51090 -14.50998 -14.37644 -14.36436 -14.36078
 Alpha  occ. eigenvalues --  -14.35863 -10.34401 -10.33462 -10.33328 -10.31993
 Alpha  occ. eigenvalues --  -10.29698 -10.27906 -10.27558 -10.24935 -10.24736
 Alpha  occ. eigenvalues --  -10.24435 -10.24359 -10.24013 -10.23908 -10.23849
 Alpha  occ. eigenvalues --  -10.23842 -10.23488 -10.22920 -10.22755 -10.22739
 Alpha  occ. eigenvalues --  -10.22704 -10.22406 -10.22343 -10.22274 -10.22203
 Alpha  occ. eigenvalues --  -10.22182 -10.22115 -10.22042 -10.22019 -10.21885
 Alpha  occ. eigenvalues --  -10.21876 -10.21856 -10.21802 -10.21553 -10.21527
 Alpha  occ. eigenvalues --  -10.21486 -10.21424 -10.20821 -10.19687  -3.44065
 Alpha  occ. eigenvalues --   -2.22788  -2.18657  -2.18297  -1.17715  -1.17579
 Alpha  occ. eigenvalues --   -1.16763  -1.03238  -1.02897  -1.01787  -1.00544
 Alpha  occ. eigenvalues --   -0.99650  -0.99402  -0.98354  -0.88647  -0.87097
 Alpha  occ. eigenvalues --   -0.85925  -0.84504  -0.83732  -0.83567  -0.82844
 Alpha  occ. eigenvalues --   -0.81926  -0.81599  -0.79698  -0.79504  -0.78929
 Alpha  occ. eigenvalues --   -0.78455  -0.77300  -0.76586  -0.75464  -0.74297
 Alpha  occ. eigenvalues --   -0.73913  -0.72894  -0.72014  -0.70680  -0.70568
 Alpha  occ. eigenvalues --   -0.69592  -0.69482  -0.67102  -0.66927  -0.65631
 Alpha  occ. eigenvalues --   -0.64809  -0.64407  -0.63142  -0.62088  -0.61749
 Alpha  occ. eigenvalues --   -0.59604  -0.58802  -0.56929  -0.56000  -0.55917
 Alpha  occ. eigenvalues --   -0.55218  -0.54549  -0.53592  -0.53383  -0.53196
 Alpha  occ. eigenvalues --   -0.53026  -0.51642  -0.51191  -0.51028  -0.50335
 Alpha  occ. eigenvalues --   -0.50203  -0.50110  -0.49870  -0.49781  -0.49273
 Alpha  occ. eigenvalues --   -0.49133  -0.48504  -0.48358  -0.47795  -0.46447
 Alpha  occ. eigenvalues --   -0.45957  -0.45813  -0.45638  -0.45377  -0.45347
 Alpha  occ. eigenvalues --   -0.44853  -0.44667  -0.44547  -0.43970  -0.43808
 Alpha  occ. eigenvalues --   -0.43477  -0.42897  -0.42711  -0.42406  -0.42072
 Alpha  occ. eigenvalues --   -0.41876  -0.41385  -0.41082  -0.40872  -0.40643
 Alpha  occ. eigenvalues --   -0.40077  -0.39601  -0.39486  -0.39271  -0.38670
 Alpha  occ. eigenvalues --   -0.38364  -0.38110  -0.37975  -0.37427  -0.37026
 Alpha  occ. eigenvalues --   -0.36943  -0.36706  -0.36555  -0.36034  -0.35775
 Alpha  occ. eigenvalues --   -0.35461  -0.34489  -0.34275  -0.33227  -0.32438
 Alpha  occ. eigenvalues --   -0.32288  -0.31524  -0.31284  -0.31092  -0.30833
 Alpha  occ. eigenvalues --   -0.30026  -0.29912  -0.28722  -0.28061  -0.27123
 Alpha  occ. eigenvalues --   -0.26492  -0.26309  -0.26152  -0.24516  -0.23582
 Alpha  occ. eigenvalues --   -0.22766  -0.21285  -0.21125  -0.20719  -0.20032
 Alpha  occ. eigenvalues --   -0.19391  -0.18871  -0.18310
 Alpha virt. eigenvalues --   -0.08935  -0.08054  -0.04999  -0.04312  -0.02295
 Alpha virt. eigenvalues --   -0.01759  -0.01292  -0.00492  -0.00427   0.00121
 Alpha virt. eigenvalues --    0.00836   0.01085   0.02961   0.03503   0.03813

 Mulliken charges:
               1
     1  C   -0.358996
     2  C    0.165473
     3  N   -0.183701
     4  C   -0.192059
     5  C    0.059109
     6  N    0.216923
     7  H    0.243335
     8  C   -0.436541
     9  C   -0.457644
    10  C   -0.524813
    11  C   -0.499699
    12  C    0.303785
    13  C    0.048551
    14  C   -0.072286
    15  C    0.274857
    16  C   -0.403030
    17  C   -0.432344
    18  C   -0.063706
    19  C    0.214557
    20  O   -0.328484
    21  O   -0.340276
    22  C    0.244943
    23  C   -0.108489
    24  C    0.030921
    25  C    0.316337
    26  C   -0.399467
    27  C   -0.144868
    28  C   -0.302461
    29  C    0.185075
    30  C   -0.214134
    31  C    0.080510
    32  C    0.225250
    33  C   -0.571091
    34  C   -0.164943
    35  C   -0.343752
    36  C    0.184275
    37  C   -0.044753
    38  C    0.026498
    39  C    0.243460
    40  C   -0.403783
    41  C   -0.353136
    42  C   -0.150179
    43  C    0.217274
    44  O   -0.295064
    45  O   -0.336464
    46  N    0.017281
    47  N   -0.005684
    48  N   -0.030995
    49  N    0.050333
    50  Fe  -0.395387
    51  O   -0.552274
    52  H    0.159545
    53  H    0.146971
    54  H    0.153519
    55  H    0.184941
    56  H    0.217331
    57  H   -0.027237
    58  H    0.084177
    59  H    0.082023
    60  H    0.161757
    61  H    0.087949
    62  H    0.132680
    63  H    0.139957
    64  H    0.125752
    65  H    0.115274
    66  H    0.118982
    67  H    0.092091
    68  H    0.137618
    69  H    0.149196
    70  H    0.137688
    71  H    0.121838
    72  H    0.088033
    73  H    0.126661
    74  H    0.133427
    75  H    0.260883
    76  H    0.229807
    77  H    0.242796
    78  H    0.122608
    79  H    0.140447
    80  H    0.054478
    81  H    0.127142
    82  H    0.138256
    83  H    0.134264
    84  H    0.101815
    85  H    0.118111
    86  H    0.133756
    87  H    0.105411
    88  H    0.275760
    89  H    0.353390
    90  H    0.352652
 Sum of Mulliken charges =  -0.00000

 Dipole moment (field-independent basis, Debye):
    X=             -2.6345    Y=             -0.2415    Z=             13.9463  Tot=             14.1950
 Quadrupole moment (field-independent basis, Debye-Ang):
   XX=           -331.8526   YY=           -257.3402   ZZ=           -274.0113
   XY=              0.6956   XZ=             -9.8455   YZ=             -4.1555

 Summary of Natural Population Analysis:

                                       Natural Population
                Natural  -----------------------------------------------
    Atom  No    Charge         Core      Valence    Rydberg      Total
 -----------------------------------------------------------------------
      C    1   -0.63222      1.99938     4.62679    0.00605     6.63222
      C    2    0.12677      1.99915     3.85797    0.01612     5.87323
      N    3   -0.44586      1.99929     5.42561    0.02096     7.44586
      C    4   -0.04495      1.99900     4.02614    0.01982     6.04495
      C    5    0.22584      1.99938     3.75525    0.01952     5.77416
      N    6   -0.25197      1.99921     5.21902    0.03375     7.25197
      H    7    0.42538      0.00000     0.57287    0.00175     0.57462
      C    8   -0.18411      1.99911     4.17245    0.01254     6.18411
      C    9   -0.18805      1.99910     4.17384    0.01510     6.18805
      C   10   -0.18247      1.99909     4.16693    0.01645     6.18247
      C   11   -0.21730      1.99908     4.20183    0.01640     6.21730
      C   12    0.13396      1.99887     3.84558    0.02159     5.86604
      C   13   -0.03171      1.99879     4.01370    0.01922     6.03171
      C   14   -0.01928      1.99887     4.00385    0.01656     6.01928
      C   15    0.12885      1.99897     3.85013    0.02206     5.87115
      C   16   -0.63263      1.99941     4.62600    0.00722     6.63263
      C   17   -0.41439      1.99932     4.40150    0.01357     6.41439
      C   18   -0.48789      1.99927     4.47178    0.01684     6.48789
      C   19    0.75922      1.99956     3.20057    0.04066     5.24078
      O   20   -0.66878      1.99955     6.63968    0.02954     8.66878
      O   21   -0.59474      1.99977     6.56834    0.02663     8.59474
      C   22    0.13034      1.99903     3.84855    0.02208     5.86966
      C   23    0.01132      1.99893     3.97236    0.01739     5.98868
      C   24   -0.12468      1.99891     4.10522    0.02055     6.12468
      C   25    0.16043      1.99903     3.81891    0.02163     5.83957
      C   26   -0.63627      1.99940     4.62931    0.00756     6.63627
      C   27   -0.18423      1.99928     4.17056    0.01439     6.18423
      C   28   -0.39962      1.99944     4.38800    0.01218     6.39962
      C   29    0.09364      1.99890     3.88497    0.02250     5.90636
      C   30    0.10843      1.99850     3.87045    0.02262     5.89157
      C   31   -0.20036      1.99887     4.18093    0.02057     6.20036
      C   32    0.17015      1.99907     3.80854    0.02224     5.82985
      C   33   -1.23800      1.99908     5.17762    0.06129     7.23800
      C   34   -0.10726      1.99929     4.09378    0.01420     6.10726
      C   35   -0.50613      1.99914     4.48512    0.02188     6.50613
      C   36    0.12683      1.99895     3.85193    0.02229     5.87317
      C   37   -0.03664      1.99885     4.02026    0.01753     6.03664
      C   38   -0.02292      1.99886     4.00496    0.01911     6.02292
      C   39    0.12983      1.99898     3.84943    0.02176     5.87017
      C   40   -0.63468      1.99940     4.62749    0.00779     6.63468
      C   41   -0.42578      1.99937     4.41192    0.01449     6.42578
      C   42   -0.50440      1.99929     4.48780    0.01731     6.50440
      C   43    0.76108      1.99952     3.19956    0.03984     5.23892
      O   44   -0.55103      1.99976     6.52519    0.02608     8.55103
      O   45   -0.68781      1.99953     6.65657    0.03170     8.68781
      N   46   -0.37143      1.99926     5.32839    0.04378     7.37143
      N   47   -0.36630      1.99924     5.32053    0.04653     7.36630
      N   48   -0.36478      1.99928     5.32409    0.04142     7.36478
      N   49   -0.36856      1.99922     5.32503    0.04430     7.36856
     Fe   50   -0.03159     17.93556     8.05948    0.03655    26.03159
      O   51   -0.78028      1.99984     6.76827    0.01218     8.78028
      H   52    0.24320      0.00000     0.75589    0.00092     0.75680
      H   53    0.22690      0.00000     0.77180    0.00130     0.77310
      H   54    0.23004      0.00000     0.76868    0.00128     0.76996
      H   55    0.25711      0.00000     0.74142    0.00148     0.74289
      H   56    0.26091      0.00000     0.73714    0.00195     0.73909
      H   57    0.37073      0.00000     0.61911    0.01016     0.62927
      H   58    0.19581      0.00000     0.80098    0.00321     0.80419
      H   59    0.20480      0.00000     0.79219    0.00301     0.79520
      H   60    0.22434      0.00000     0.77270    0.00297     0.77566
      H   61    0.20739      0.00000     0.78983    0.00278     0.79261
      H   62    0.21729      0.00000     0.78145    0.00127     0.78271
      H   63    0.21683      0.00000     0.78155    0.00162     0.78317
      H   64    0.21694      0.00000     0.78135    0.00170     0.78306
      H   65    0.21518      0.00000     0.78286    0.00196     0.78482
      H   66    0.21861      0.00000     0.77891    0.00248     0.78139
      H   67    0.21938      0.00000     0.77861    0.00200     0.78062
      H   68    0.24517      0.00000     0.75312    0.00171     0.75483
      H   69    0.22649      0.00000     0.77157    0.00194     0.77351
      H   70    0.22093      0.00000     0.77712    0.00195     0.77907
      H   71    0.21516      0.00000     0.78365    0.00118     0.78484
      H   72    0.20136      0.00000     0.79656    0.00207     0.79864
      H   73    0.18797      0.00000     0.81027    0.00176     0.81203
      H   74    0.19978      0.00000     0.79895    0.00127     0.80022
      H   75    0.39473      0.00000     0.60363    0.00164     0.60527
      H   76    0.42851      0.00000     0.56630    0.00519     0.57149
      H   77    0.42104      0.00000     0.57658    0.00237     0.57896
      H   78    0.19672      0.00000     0.80126    0.00202     0.80328
      H   79    0.20660      0.00000     0.79174    0.00166     0.79340
      H   80    0.15409      0.00000     0.84299    0.00292     0.84591
      H   81    0.21600      0.00000     0.78223    0.00176     0.78400
      H   82    0.21837      0.00000     0.77996    0.00166     0.78163
      H   83    0.22105      0.00000     0.77775    0.00120     0.77895
      H   84    0.21877      0.00000     0.77928    0.00195     0.78123
      H   85    0.21853      0.00000     0.77952    0.00195     0.78147
      H   86    0.24187      0.00000     0.75635    0.00178     0.75813
      H   87    0.22484      0.00000     0.77338    0.00178     0.77516
      H   88    0.43216      0.00000     0.56448    0.00336     0.56784
      H   89    0.51536      0.00000     0.48176    0.00288     0.48464
      H   90    0.51608      0.00000     0.48138    0.00254     0.48392
 =======================================================================
   * Total *   -0.00000    115.89597   258.87933    1.22470   376.00000

 Normal termination of Gaussian 16 at Mon Sep 19 21:21:04 2022.
