 Gaussian 16, Revision A.03,
 Gaussian 16:  ES64L-G16RevA.03 25-Dec-2016

 ----------------------------------------------------------------------
 # PBE1PBE/def2TZVP empiricaldispersion=GD3BJ int=(grid=ultrafine) geom
 =check pop=nbo
 ----------------------------------------------------------------------

 ---------
 1ccc_II_Q
 ---------
 Structure from the checkpoint file:  "1ccc_II_Q.chk"
 Charge =  0 Multiplicity = 5

                         Standard orientation:
 ---------------------------------------------------------------------
 Center     Atomic      Atomic             Coordinates (Angstroms)
 Number     Number       Type             X           Y           Z
 ---------------------------------------------------------------------
      1          6           0       -1.547530   -1.837054    4.949256
      2          6           0       -1.462943   -0.893093    3.739090
      3          7           0       -1.679353    0.414183    3.682111
      4          6           0       -1.149798   -1.245063    2.453674
      5          6           0       -1.482546    0.849800    2.461598
      6          7           0       -1.160336   -0.166263    1.706734
      7          1           0       -2.105947    0.950743    4.369426
      8          6           0        2.365700    0.117175    0.214107
      9          6           0       -0.987526    3.552141   -0.268529
     10          6           0       -4.245136    0.086681   -0.645663
     11          6           0       -0.857484   -3.268428   -0.704938
     12          6           0        1.751825    1.376080    0.127651
     13          6           0        2.452341    2.545737    0.134488
     14          6           0        1.487584    3.563920    0.024458
     15          6           0        0.262684    2.927896   -0.096125
     16          6           0        1.699946    5.083216   -0.029930
     17          6           0        3.975586    2.588636    0.214874
     18          6           0        4.700572    2.840813   -1.080640
     19          6           0        6.225813    2.876431   -0.927693
     20          8           0        6.780855    3.820675   -0.382614
     21          8           0        6.936509    1.984812   -1.364673
     22          6           0       -2.245782    2.911520   -0.316536
     23          6           0       -3.493064    3.558074   -0.319238
     24          6           0       -4.433426    2.526747   -0.359110
     25          6           0       -3.692890    1.347268   -0.429632
     26          6           0       -3.687338    5.057385   -0.173680
     27          6           0       -5.836771    2.507417   -0.342000
     28          6           0       -6.753546    3.596043   -0.246116
     29          6           0       -3.639398   -1.165648   -0.772504
     30          6           0       -4.316472   -2.331932   -1.128158
     31          6           0       -3.291824   -3.280040   -1.267304
     32          6           0       -2.104107   -2.657063   -0.852700
     33          6           0       -5.837794   -2.461509   -1.362844
     34          6           0       -3.353638   -4.625829   -1.636344
     35          6           0       -4.505618   -5.516625   -1.574151
     36          6           0        0.356856   -2.670600   -0.374476
     37          6           0        1.503889   -3.349832   -0.002299
     38          6           0        2.440799   -2.364601    0.278161
     39          6           0        1.795289   -1.149020    0.055414
     40          6           0        1.732368   -4.841441    0.083919
     41          6           0        3.903353   -2.581971    0.689622
     42          6           0        4.853533   -2.665186   -0.511402
     43          6           0        6.328586   -2.717643   -0.153539
     44          8           0        7.162869   -2.216921   -0.881969
     45          8           0        6.657365   -3.269643    0.882567
     46          7           0        0.430962    1.603852   -0.012781
     47          7           0       -2.398077    1.586678   -0.291281
     48          7           0       -2.320157   -1.375634   -0.575019
     49          7           0        0.536421   -1.348815   -0.316954
     50         26           0       -0.954770    0.108135   -0.267683
     51          8           0       -0.717058    0.424262   -2.084194
     52          1           0       -1.356462   -2.841069    4.632480
     53          1           0       -2.525535   -1.778773    5.379383
     54          1           0       -0.819474   -1.548419    5.678313
     55          1           0       -0.932359   -2.236198    2.114157
     56          1           0       -1.570908    1.865962    2.138325
     57          1           0       -0.956802   -0.128542    0.728393
     58          1           0        3.413405    0.127998    0.431125
     59          1           0       -0.984329    4.616968   -0.373570
     60          1           0       -5.311889    0.075917   -0.728263
     61          1           0       -0.831584   -4.326042   -0.865192
     62          1           0        0.872706    5.541280   -0.530680
     63          1           0        1.772419    5.469079    0.965438
     64          1           0        2.602743    5.298323   -0.562459
     65          1           0        4.270881    1.605841    0.517883
     66          1           0        4.202759    3.430541    0.834946
     67          1           0        4.413472    3.823597   -1.391460
     68          1           0        4.487556    1.998563   -1.705251
     69          1           0       -4.306292    5.415759   -0.969521
     70          1           0       -4.156395    5.266792    0.764955
     71          1           0       -2.736189    5.545849   -0.213928
     72          1           0       -6.282743    1.537217   -0.410717
     73          1           0       -6.387568    4.598906   -0.173827
     74          1           0       -7.807208    3.409769   -0.246482
     75          1           0       -6.515196   -3.273287   -1.198397
     76          1           0       -5.482399   -3.145513   -2.104957
     77          1           0       -5.816828   -2.499529   -0.293725
     78          1           0       -2.446765   -5.054033   -2.009334
     79          1           0       -4.689316   -5.930344   -2.543683
     80          1           0       -5.365052   -4.966335   -1.252507
     81          1           0        2.669530   -5.085604   -0.371066
     82          1           0        1.745573   -5.141471    1.110909
     83          1           0        0.943745   -5.353189   -0.427049
     84          1           0        3.938450   -3.541531    1.161759
     85          1           0        4.190727   -1.706918    1.234231
     86          1           0        4.719628   -1.749769   -1.048972
     87          1           0        4.638323   -3.600177   -0.985087
     88          1           0       -1.207105   -0.228570   -2.589433
     89          1           0        7.573708    4.199646   -0.769092
     90          1           0        7.059662   -4.140864    0.855550
 ---------------------------------------------------------------------

 SCF Done:  E(UPBE1PBE) =  -3438.08720721     A.U. after   52 cycles

 Alpha virt. eigenvalues --    0.71552   0.71642   0.72133   0.72323   0.72449
 Alpha virt. eigenvalues --    0.72926   0.73053   0.73381   0.73750   0.73903
 Alpha virt. eigenvalues --    0.74434   0.74565   0.74858   0.75446   0.75516

  Beta  occ. eigenvalues -- -256.31691 -30.04645 -25.88189 -25.87878 -25.87235
  Beta  occ. eigenvalues --  -19.24821 -19.24629 -19.16739 -19.15864 -19.08588
  Beta  occ. eigenvalues --  -14.51164 -14.49087 -14.36700 -14.35616 -14.35145
  Beta  occ. eigenvalues --  -14.34702 -10.34728 -10.33487 -10.33314 -10.31959
  Beta  occ. eigenvalues --  -10.29596 -10.27860 -10.27530 -10.24952 -10.24766
  Beta  occ. eigenvalues --  -10.24465 -10.24288 -10.24098 -10.23927 -10.23887
  Beta  occ. eigenvalues --  -10.23838 -10.23457 -10.22940 -10.22746 -10.22729
  Beta  occ. eigenvalues --  -10.22710 -10.22371 -10.22324 -10.22255 -10.22220
  Beta  occ. eigenvalues --  -10.22208 -10.22058 -10.22037 -10.21980 -10.21916
  Beta  occ. eigenvalues --  -10.21904 -10.21885 -10.21836 -10.21559 -10.21547
  Beta  occ. eigenvalues --  -10.21427 -10.21363 -10.20765 -10.19669  -3.38323
  Beta  occ. eigenvalues --   -2.17108  -2.11824  -2.11438  -1.17736  -1.17567
  Beta  occ. eigenvalues --   -1.16561  -1.02935  -1.02919  -1.01775  -1.00427
  Beta  occ. eigenvalues --   -0.99558  -0.99294  -0.98136  -0.87573  -0.87045
  Beta  occ. eigenvalues --   -0.85855  -0.84508  -0.83733  -0.83563  -0.82849
  Beta  occ. eigenvalues --   -0.81947  -0.81600  -0.79677  -0.79325  -0.78912
  Beta  occ. eigenvalues --   -0.78405  -0.77082  -0.76595  -0.75474  -0.74287
  Beta  occ. eigenvalues --   -0.73856  -0.72905  -0.72022  -0.70677  -0.70522
  Beta  occ. eigenvalues --   -0.69607  -0.69440  -0.67093  -0.66925  -0.65646
  Beta  occ. eigenvalues --   -0.64774  -0.64243  -0.63127  -0.62080  -0.61553
  Beta  occ. eigenvalues --   -0.59608  -0.58744  -0.56927  -0.55957  -0.55849
  Beta  occ. eigenvalues --   -0.55218  -0.54527  -0.53587  -0.53367  -0.53176
  Beta  occ. eigenvalues --   -0.52995  -0.51648  -0.51202  -0.51037  -0.50263
  Beta  occ. eigenvalues --   -0.50177  -0.50067  -0.49854  -0.49778  -0.49282
  Beta  occ. eigenvalues --   -0.49162  -0.48457  -0.48304  -0.47800  -0.46429
  Beta  occ. eigenvalues --   -0.45964  -0.45776  -0.45623  -0.45363  -0.45351
  Beta  occ. eigenvalues --   -0.44854  -0.44650  -0.44505  -0.43967  -0.43800
  Beta  occ. eigenvalues --   -0.43463  -0.42877  -0.42684  -0.42347  -0.42033
  Beta  occ. eigenvalues --   -0.41846  -0.41363  -0.40997  -0.40813  -0.40543
  Beta  occ. eigenvalues --   -0.40020  -0.39548  -0.39457  -0.39241  -0.38660
  Beta  occ. eigenvalues --   -0.38344  -0.38038  -0.37852  -0.37400  -0.36959
  Beta  occ. eigenvalues --   -0.36839  -0.36706  -0.36528  -0.35897  -0.35713
  Beta  occ. eigenvalues --   -0.35448  -0.34441  -0.34295  -0.33280  -0.32361
  Beta  occ. eigenvalues --   -0.32296  -0.31503  -0.31218  -0.31149  -0.30705
  Beta  occ. eigenvalues --   -0.29948  -0.29731  -0.28501  -0.27870  -0.27031
  Beta  occ. eigenvalues --   -0.26287  -0.25449  -0.24511  -0.23935  -0.23135
  Beta  occ. eigenvalues --   -0.22250  -0.20441  -0.19886  -0.19476  -0.18820
  Beta  occ. eigenvalues --   -0.18202
  Beta virt. eigenvalues --   -0.08973  -0.08092  -0.05770  -0.04827  -0.02713
  Beta virt. eigenvalues --   -0.02068  -0.01335  -0.00643  -0.00463  -0.00407
  Beta virt. eigenvalues --    0.00412   0.00846   0.01092   0.02359   0.03076

 Mulliken charges and spin densities:
               1          2
     1  C   -0.359325   0.002010
     2  C    0.162209   0.009919
     3  N   -0.182763   0.001466
     4  C   -0.183639  -0.000301
     5  C    0.070451  -0.008329
     6  N    0.187659   0.105681
     7  H    0.241756   0.002212
     8  C   -0.440431  -0.016272
     9  C   -0.468154  -0.006690
    10  C   -0.530601  -0.006203
    11  C   -0.507807  -0.007511
    12  C    0.319522   0.001997
    13  C    0.042948   0.007328
    14  C   -0.069161  -0.007539
    15  C    0.278437   0.001806
    16  C   -0.403242   0.001480
    17  C   -0.432405   0.001148
    18  C   -0.063829  -0.000040
    19  C    0.214557   0.000076
    20  O   -0.328481   0.000015
    21  O   -0.340476   0.000059
    22  C    0.251838   0.000307
    23  C   -0.105250   0.002364
    24  C    0.029653   0.002898
    25  C    0.343778   0.004904
    26  C   -0.399332   0.001212
    27  C   -0.145319   0.001484
    28  C   -0.302052  -0.001696
    29  C    0.199161  -0.000053
    30  C   -0.212827   0.017483
    31  C    0.077477  -0.010609
    32  C    0.230151  -0.003241
    33  C   -0.571709   0.001800
    34  C   -0.165207   0.017319
    35  C   -0.345121  -0.024289
    36  C    0.196151  -0.003471
    37  C   -0.044649   0.003479
    38  C    0.029800   0.004889
    39  C    0.255257   0.008887
    40  C   -0.403794   0.001353
    41  C   -0.353137   0.000273
    42  C   -0.150316   0.000239
    43  C    0.217280  -0.000070
    44  O   -0.294913   0.000003
    45  O   -0.336452   0.000002
    46  N   -0.026737   0.038938
    47  N   -0.075663   0.035997
    48  N   -0.075455   0.044198
    49  N   -0.016345   0.042173
    50  Fe  -0.180914   3.344387
    51  O   -0.562146   0.356500
    52  H    0.159438   0.000081
    53  H    0.146683   0.000295
    54  H    0.153199   0.000445
    55  H    0.183203   0.003369
    56  H    0.218420   0.002285
    57  H   -0.049620   0.023558
    58  H    0.084069  -0.000023
    59  H    0.081774   0.000143
    60  H    0.161321  -0.000423
    61  H    0.087759   0.000390
    62  H    0.132429  -0.000149
    63  H    0.139533  -0.000367
    64  H    0.125402   0.000152
    65  H    0.114901   0.000010
    66  H    0.118875   0.000124
    67  H    0.092258   0.000020
    68  H    0.137217   0.000019
    69  H    0.149069   0.000153
    70  H    0.137587  -0.000089
    71  H    0.122008   0.000008
    72  H    0.088054   0.000037
    73  H    0.126834   0.000078
    74  H    0.133516   0.000203
    75  H    0.260188   0.001577
    76  H    0.230011   0.000646
    77  H    0.242499   0.000398
    78  H    0.122175  -0.000998
    79  H    0.140169   0.000364
    80  H    0.054229   0.000809
    81  H    0.127031  -0.000074
    82  H    0.138184   0.000179
    83  H    0.134468  -0.000048
    84  H    0.101765   0.000371
    85  H    0.118236  -0.000068
    86  H    0.133767   0.000061
    87  H    0.105504  -0.000006
    88  H    0.271350  -0.003506
    89  H    0.353353  -0.000004
    90  H    0.352705   0.000006
 Sum of Mulliken charges =  -0.00000   4.00000

 Dipole moment (field-independent basis, Debye):
    X=             -2.6224    Y=             -0.2419    Z=             14.0429  Tot=             14.2877
 Quadrupole moment (field-independent basis, Debye-Ang):
   XX=           -332.9130   YY=           -258.9598   ZZ=           -275.3687
   XY=             -0.0042   XZ=            -10.0869   YZ=             -3.9798

 Summary of Natural Population Analysis:

                                       Natural Population
                Natural  -----------------------------------------------
    Atom  No    Charge         Core      Valence    Rydberg      Total
 -----------------------------------------------------------------------
      C    1   -0.31554      0.99969     2.31296    0.00289     3.31554
      C    2    0.06768      0.99957     1.92340    0.00934     2.93232
      N    3   -0.22032      0.99964     2.71047    0.01021     3.72032
      C    4   -0.02361      0.99950     2.01398    0.01014     3.02361
      C    5    0.10986      0.99968     1.88044    0.01002     2.89014
      N    6   -0.09262      0.99962     2.57583    0.01718     3.59262
      H    7    0.21284      0.00000     0.28633    0.00083     0.28716
      C    8   -0.09523      0.99954     2.08777    0.00791     3.09523
      C    9   -0.09586      0.99955     2.08851    0.00781     3.09586
      C   10   -0.08985      0.99954     2.08233    0.00797     3.08985
      C   11   -0.11015      0.99954     2.10257    0.00805     3.11015
      C   12    0.06441      0.99943     1.92581    0.01035     2.93559
      C   13   -0.01253      0.99939     2.00369    0.00945     3.01253
      C   14   -0.01257      0.99943     2.00470    0.00843     3.01257
      C   15    0.06609      0.99948     1.92323    0.01121     2.93391
      C   16   -0.31589      0.99970     2.31262    0.00357     3.31589
      C   17   -0.20718      0.99966     2.20074    0.00678     3.20718
      C   18   -0.24375      0.99963     2.23571    0.00841     3.24375
      C   19    0.37966      0.99978     1.60024    0.02032     2.62034
      O   20   -0.33439      0.99978     3.31984    0.01477     4.33439
      O   21   -0.29744      0.99988     3.28425    0.01331     4.29744
      C   22    0.06656      0.99951     1.92306    0.01087     2.93344
      C   23    0.00633      0.99947     1.98568    0.00852     2.99367
      C   24   -0.06032      0.99945     2.05081    0.01006     3.06032
      C   25    0.07798      0.99951     1.91213    0.01039     2.92202
      C   26   -0.31786      0.99970     2.31438    0.00378     3.31786
      C   27   -0.09194      0.99964     2.08513    0.00716     3.09194
      C   28   -0.20016      0.99972     2.19437    0.00607     3.20016
      C   29    0.04236      0.99944     1.94689    0.01131     2.95764
      C   30    0.06182      0.99925     1.92771    0.01122     2.93818
      C   31   -0.10467      0.99943     2.09507    0.01017     3.10467
      C   32    0.08550      0.99953     1.90361    0.01136     2.91450
      C   33   -0.61713      0.99954     2.58708    0.03052     3.61713
      C   34   -0.04726      0.99964     2.04057    0.00705     3.04726
      C   35   -0.26524      0.99958     2.25470    0.01097     3.26524
      C   36    0.06603      0.99947     1.92367    0.01082     2.93397
      C   37   -0.01791      0.99942     2.00978    0.00871     3.01791
      C   38   -0.00726      0.99943     1.99845    0.00939     3.00726
      C   39    0.06393      0.99949     1.92650    0.01009     2.93607
      C   40   -0.31711      0.99970     2.31352    0.00389     3.31711
      C   41   -0.21295      0.99968     2.20603    0.00724     3.21295
      C   42   -0.25209      0.99964     2.24381    0.00864     3.25209
      C   43    0.38054      0.99976     1.59979    0.01991     2.61946
      O   44   -0.27542      0.99988     3.26250    0.01304     4.27542
      O   45   -0.34388      0.99977     3.32827    0.01585     4.34388
      N   46   -0.18899      0.99967     2.66623    0.02308     3.68899
      N   47   -0.18049      0.99965     2.66053    0.02031     3.68049
      N   48   -0.18469      0.99968     2.66308    0.02193     3.68469
      N   49   -0.18250      0.99965     2.66239    0.02045     3.68250
     Fe   50    1.80006      8.96694     2.20843    0.02458    11.19994
      O   51   -0.22557      0.99992     3.21792    0.00773     4.22557
      H   52    0.12169      0.00000     0.37788    0.00043     0.37831
      H   53    0.11354      0.00000     0.38583    0.00062     0.38646
      H   54    0.11516      0.00000     0.38422    0.00062     0.38484
      H   55    0.12876      0.00000     0.37050    0.00074     0.37124
      H   56    0.13152      0.00000     0.36753    0.00095     0.36848
      H   57    0.17159      0.00000     0.32390    0.00452     0.32841
      H   58    0.09842      0.00000     0.40006    0.00152     0.40158
      H   59    0.10272      0.00000     0.39578    0.00150     0.39728
      H   60    0.11268      0.00000     0.38587    0.00146     0.38732
      H   61    0.10418      0.00000     0.39445    0.00137     0.39582
      H   62    0.10849      0.00000     0.39087    0.00063     0.39151
      H   63    0.10814      0.00000     0.39105    0.00082     0.39186
      H   64    0.10843      0.00000     0.39072    0.00085     0.39157
      H   65    0.10747      0.00000     0.39155    0.00097     0.39253
      H   66    0.10944      0.00000     0.38935    0.00121     0.39056
      H   67    0.10972      0.00000     0.38927    0.00100     0.39028
      H   68    0.12253      0.00000     0.37663    0.00084     0.37747
      H   69    0.11326      0.00000     0.38578    0.00096     0.38674
      H   70    0.11046      0.00000     0.38858    0.00096     0.38954
      H   71    0.10767      0.00000     0.39174    0.00059     0.39233
      H   72    0.10072      0.00000     0.39826    0.00103     0.39928
      H   73    0.09403      0.00000     0.40509    0.00088     0.40597
      H   74    0.09996      0.00000     0.39941    0.00063     0.40004
      H   75    0.19774      0.00000     0.30145    0.00081     0.30226
      H   76    0.21456      0.00000     0.28287    0.00257     0.28544
      H   77    0.21052      0.00000     0.28830    0.00118     0.28948
      H   78    0.09787      0.00000     0.40112    0.00101     0.40213
      H   79    0.10340      0.00000     0.39577    0.00083     0.39660
      H   80    0.07722      0.00000     0.42133    0.00145     0.42278
      H   81    0.10795      0.00000     0.39117    0.00088     0.39205
      H   82    0.10927      0.00000     0.38990    0.00082     0.39073
      H   83    0.11059      0.00000     0.38881    0.00060     0.38941
      H   84    0.10953      0.00000     0.38950    0.00097     0.39047
      H   85    0.10934      0.00000     0.38970    0.00097     0.39066
      H   86    0.12094      0.00000     0.37817    0.00088     0.37906
      H   87    0.11244      0.00000     0.38668    0.00089     0.38756
      H   88    0.21104      0.00000     0.28685    0.00211     0.28896
      H   89    0.25767      0.00000     0.24089    0.00144     0.24233
      H   90    0.25806      0.00000     0.24067    0.00127     0.24194
 =======================================================================
   * Total *    2.00000     57.94721   127.43497    0.61782   186.00000

 Normal termination of Gaussian 16 at Wed Sep 21 05:58:48 2022.
