 Gaussian 16, Revision A.03,
 Gaussian 16:  AM64L-G16RevA.03 25-Dec-2016

 ----------------------------------------------------------------------
 # PBE1PBE/def2TZVP empiricaldispersion=GD3BJ int=(grid=ultrafine) geom
 =check pop=nbo
 ----------------------------------------------------------------------

 ---------
 1cce_II_Q
 ---------
 Structure from the checkpoint file:  "1cce_II_Q.chk"
 Charge =  0 Multiplicity = 5

                         Standard orientation:
 ---------------------------------------------------------------------
 Center     Atomic      Atomic             Coordinates (Angstroms)
 Number     Number       Type             X           Y           Z
 ---------------------------------------------------------------------
      1          6           0        2.215484   -0.034313   -0.468490
      2          6           0       -1.124328   -3.435501    0.033210
      3          6           0       -4.473291   -0.021934    0.043667
      4          6           0       -1.062382    3.310246    0.023569
      5          6           0        1.611099   -1.296830   -0.349515
      6          6           0        2.323720   -2.480111   -0.313105
      7          6           0        1.348523   -3.500464   -0.227404
      8          6           0        0.129757   -2.832754   -0.119690
      9          6           0        1.539919   -5.008531   -0.317125
     10          6           0        3.841227   -2.531964   -0.435963
     11          6           0        4.570689   -2.742716    0.872777
     12          6           0        6.093415   -2.861194    0.807805
     13          8           0        6.621235   -3.874269    0.364406
     14          8           0        6.814177   -1.962617    1.233293
     15          6           0       -2.387413   -2.820475   -0.002318
     16          6           0       -3.609475   -3.511460   -0.068331
     17          6           0       -4.585953   -2.507799   -0.114796
     18          6           0       -3.883671   -1.293382   -0.058715
     19          6           0       -3.753549   -5.033739   -0.192963
     20          6           0       -5.983958   -2.575512   -0.200172
     21          6           0       -6.845188   -3.744108   -0.264294
     22          6           0       -3.864962    1.228138    0.165479
     23          6           0       -4.525987    2.429559    0.411385
     24          6           0       -3.501120    3.400403    0.437684
     25          6           0       -2.321978    2.706560    0.173346
     26          6           0       -6.019771    2.577510    0.652748
     27          6           0       -3.492219    4.791514    0.642049
     28          6           0       -4.594230    5.718064    0.808893
     29          6           0        0.188112    2.744433   -0.117602
     30          6           0        1.352683    3.433818   -0.430946
     31          6           0        2.300255    2.453684   -0.596719
     32          6           0        1.648320    1.247063   -0.345634
     33          6           0        1.615391    4.926534   -0.599629
     34          6           0        3.747742    2.704319   -0.993064
     35          6           0        4.661098    2.395575    0.164091
     36          6           0        6.130769    2.605574   -0.056171
     37          8           0        6.901481    2.219508    0.820036
     38          8           0        6.527814    3.134318   -1.084460
     39          7           0        0.298328   -1.514080   -0.223336
     40          7           0       -2.561667   -1.500946   -0.077988
     41          7           0       -2.537976    1.404342    0.093476
     42          7           0        0.376959    1.437161    0.007086
     43         26           0       -1.107873   -0.026320   -0.060815
     44          8           0       -0.925722   -0.369372    1.918194
     45          8           0       -1.171312    0.359346   -2.029312
     46          1           0        3.263285   -0.049652   -0.684771
     47          1           0       -1.120817   -4.492881    0.197024
     48          1           0       -5.543079   -0.010633    0.025623
     49          1           0       -1.074684    4.380161    0.018084
     50          1           0        0.688487   -5.501752    0.103227
     51          1           0        1.647199   -5.294051   -1.342732
     52          1           0        2.418556   -5.289430    0.225086
     53          1           0        4.136965   -1.562601   -0.779147
     54          1           0        4.054099   -3.397188   -1.028391
     55          1           0        4.231602   -3.691851    1.232030
     56          1           0        4.383375   -1.856862    1.442932
     57          1           0       -4.365410   -5.400570    0.604509
     58          1           0       -4.208955   -5.273278   -1.131114
     59          1           0       -2.786767   -5.489089   -0.139210
     60          1           0       -6.488480   -1.632156   -0.221085
     61          1           0       -7.788874   -3.905549   -0.742095
     62          1           0       -6.540043   -3.689126   -1.288385
     63          1           0       -6.694727    3.383886    0.455028
     64          1           0       -5.652036    3.296195    1.355002
     65          1           0       -6.011176    2.561077   -0.417092
     66          1           0       -2.519527    5.235700    0.680405
     67          1           0       -4.839037    5.797816    1.847455
     68          1           0       -5.445616    5.360749    0.268182
     69          1           0        2.518659    5.189551   -0.089895
     70          1           0        1.713207    5.156124   -1.640119
     71          1           0        0.798631    5.481266   -0.187225
     72          1           0        3.836551    3.753702   -1.182294
     73          1           0        3.980888    2.000036   -1.764121
     74          1           0        4.550947    1.345094    0.335138
     75          1           0        4.390074    3.093417    0.928592
     76          1           0       -1.329726   -0.099500    2.746173
     77          1           0       -0.062202    0.041647    1.834548
     78          1           0       -1.575316    0.629218   -1.201333
     79          1           0       -0.307792    0.770365   -2.112958
     80          1           0        6.948956    3.996294   -1.049296
     81          1           0        6.694223   -1.633694    2.127173
 ---------------------------------------------------------------------

 SCF Done:  E(UPBE1PBE) =  -3249.19083140     A.U. after   67 cycles

 Alpha virt. eigenvalues --    0.33735   0.34275   0.34515   0.34780   0.35023
 Alpha virt. eigenvalues --    0.35152   0.35230   0.35512   0.35767   0.35909
 Alpha virt. eigenvalues --    0.36241   0.36559   0.36964   0.37263   0.37440

  Beta  occ. eigenvalues -- -256.33375 -30.07769 -25.91782 -25.90852 -25.89445
  Beta  occ. eigenvalues --  -19.26577 -19.25329 -19.23881 -19.19598 -19.18316
  Beta  occ. eigenvalues --  -19.16827 -14.39725 -14.37785 -14.37521 -14.37093
  Beta  occ. eigenvalues --  -10.35368 -10.34066 -10.28160 -10.25958 -10.25882
  Beta  occ. eigenvalues --  -10.25863 -10.25684 -10.25564 -10.25165 -10.25116
  Beta  occ. eigenvalues --  -10.25092 -10.25007 -10.24882 -10.24773 -10.23603
  Beta  occ. eigenvalues --  -10.23547 -10.23388 -10.23387 -10.23351 -10.23230
  Beta  occ. eigenvalues --  -10.23195 -10.23159 -10.23088 -10.23000 -10.22985
  Beta  occ. eigenvalues --  -10.22834 -10.22738 -10.22666 -10.22616 -10.22251
  Beta  occ. eigenvalues --  -10.21920 -10.21784 -10.21468 -10.20215  -3.41135
  Beta  occ. eigenvalues --   -2.19422  -2.15999  -2.13870  -1.19131  -1.17553
  Beta  occ. eigenvalues --   -1.07973  -1.05320  -1.04145  -1.02812  -1.02312
  Beta  occ. eigenvalues --   -1.01442  -1.00396  -0.99590  -0.87121  -0.86055
  Beta  occ. eigenvalues --   -0.85313  -0.84584  -0.84402  -0.83045  -0.82249
  Beta  occ. eigenvalues --   -0.80923  -0.80238  -0.79192  -0.78663  -0.76245
  Beta  occ. eigenvalues --   -0.75831  -0.75023  -0.74037  -0.73181  -0.71588
  Beta  occ. eigenvalues --   -0.71346  -0.69401  -0.68121  -0.67934  -0.66982
  Beta  occ. eigenvalues --   -0.66445  -0.64389  -0.63727  -0.60482  -0.60217
  Beta  occ. eigenvalues --   -0.59807  -0.58909  -0.57858  -0.57016  -0.56453
  Beta  occ. eigenvalues --   -0.55557  -0.54637  -0.54234  -0.53952  -0.53213
  Beta  occ. eigenvalues --   -0.52754  -0.52419  -0.51598  -0.51285  -0.50718
  Beta  occ. eigenvalues --   -0.50607  -0.50333  -0.49972  -0.49149  -0.47758
  Beta  occ. eigenvalues --   -0.47229  -0.47178  -0.46630  -0.46289  -0.45984
  Beta  occ. eigenvalues --   -0.45729  -0.45428  -0.45109  -0.44915  -0.44833
  Beta  occ. eigenvalues --   -0.44388  -0.43899  -0.43844  -0.43522  -0.42758
  Beta  occ. eigenvalues --   -0.42309  -0.42202  -0.41682  -0.41515  -0.41234
  Beta  occ. eigenvalues --   -0.40884  -0.40499  -0.40200  -0.39921  -0.39479
  Beta  occ. eigenvalues --   -0.39205  -0.38772  -0.38615  -0.38418  -0.38318
  Beta  occ. eigenvalues --   -0.38105  -0.37879  -0.37557  -0.37263  -0.37112
  Beta  occ. eigenvalues --   -0.36632  -0.35686  -0.35401  -0.34148  -0.33913
  Beta  occ. eigenvalues --   -0.33690  -0.33619  -0.32591  -0.32283  -0.31646
  Beta  occ. eigenvalues --   -0.30759  -0.29861  -0.29207  -0.28727  -0.27103
  Beta  occ. eigenvalues --   -0.26187  -0.25883  -0.24542  -0.24447  -0.22403
  Beta  occ. eigenvalues --   -0.21357  -0.20366  -0.19849  -0.18398
  Beta virt. eigenvalues --   -0.11212  -0.09601  -0.08706  -0.06376  -0.04588
  Beta virt. eigenvalues --   -0.01975  -0.01798  -0.00975  -0.00528  -0.00173
  Beta virt. eigenvalues --    0.00732   0.01632   0.03027   0.03191   0.03769

 Mulliken charges and spin densities:
               1          2
     1  C   -0.362963   0.046850
     2  C   -0.489360   0.121984
     3  C   -0.548000   0.015172
     4  C   -0.437589  -0.043624
     5  C    0.227796  -0.020455
     6  C    0.028797  -0.028316
     7  C   -0.138760   0.012257
     8  C    0.366441  -0.056467
     9  C   -0.387591  -0.000159
    10  C   -0.364685   0.003547
    11  C   -0.165287  -0.001975
    12  C    0.288697  -0.000164
    13  O   -0.342931  -0.000116
    14  O   -0.306271  -0.000032
    15  C    0.305623  -0.109447
    16  C   -0.135168   0.407470
    17  C   -0.071111  -0.182826
    18  C    0.371448   0.037363
    19  C   -0.362740  -0.019487
    20  C   -0.096427   0.532450
    21  C   -0.265832   1.016742
    22  C    0.315124   0.035080
    23  C   -0.291613  -0.166057
    24  C    0.018712   0.172196
    25  C    0.245755  -0.008264
    26  C   -0.576258  -0.038323
    27  C   -0.049554  -0.531631
    28  C   -0.425773   0.730030
    29  C    0.237672   0.026128
    30  C   -0.072451  -0.008658
    31  C    0.055728   0.023422
    32  C    0.167532  -0.014602
    33  C   -0.418189   0.000379
    34  C   -0.280125  -0.001728
    35  C   -0.169796   0.000641
    36  C    0.235941   0.000082
    37  O   -0.337859   0.000083
    38  O   -0.327772  -0.000019
    39  N   -0.026876   0.003614
    40  N   -0.046843   0.044184
    41  N   -0.073855  -0.093312
    42  N   -0.244711  -0.015881
    43  Fe  -0.149843   1.990399
    44  O   -0.524664   0.025079
    45  O   -0.439744   0.069476
    46  H    0.069789  -0.002660
    47  H    0.092912  -0.006062
    48  H    0.115106  -0.002496
    49  H    0.079573   0.004033
    50  H    0.127219   0.000141
    51  H    0.149317   0.000030
    52  H    0.135271  -0.000061
    53  H    0.113372  -0.000392
    54  H    0.132307  -0.000633
    55  H    0.118110   0.000081
    56  H    0.094516   0.000340
    57  H    0.148142   0.010700
    58  H    0.131532   0.014753
    59  H    0.118550   0.004553
    60  H    0.141204   0.029152
    61  H    0.166542   0.006176
    62  H    0.168697  -0.007645
    63  H    0.260826  -0.001465
    64  H    0.235812  -0.009081
    65  H    0.252710   0.002688
    66  H    0.113322   0.036219
    67  H    0.153361  -0.032445
    68  H    0.113183  -0.031696
    69  H    0.128989   0.000033
    70  H    0.155333  -0.000014
    71  H    0.134925  -0.000123
    72  H    0.100933   0.000197
    73  H    0.125296   0.000750
    74  H    0.105305  -0.000046
    75  H    0.126002   0.000054
    76  H    0.327965   0.010673
    77  H    0.345662   0.002836
    78  H    0.238640  -0.004904
    79  H    0.337627   0.003202
    80  H    0.357792   0.000018
    81  H    0.349531   0.000006
 Sum of Mulliken charges =  -0.00000   4.00000

 Dipole moment (field-independent basis, Debye):
    X=             -3.8226    Y=              3.9539    Z=              1.0118  Tot=              5.5919
 Quadrupole moment (field-independent basis, Debye-Ang):
   XX=           -293.8657   YY=           -256.1285   ZZ=           -265.0655
   XY=             47.0734   XZ=              9.7903   YZ=             -3.9121

 Summary of Natural Population Analysis:

                                       Natural Population
                Natural  -----------------------------------------------
    Atom  No    Charge         Core      Valence    Rydberg      Total
 -----------------------------------------------------------------------
      C    1   -0.09240      0.99955     2.08468    0.00817     3.09240
      C    2   -0.03784      0.99955     2.03102    0.00727     3.03784
      C    3   -0.10220      0.99955     2.09457    0.00808     3.10220
      C    4   -0.12267      0.99955     2.11511    0.00801     3.12267
      C    5    0.05713      0.99947     1.93266    0.01074     2.94287
      C    6   -0.03048      0.99943     2.02163    0.00941     3.03048
      C    7    0.00085      0.99946     1.99166    0.00802     2.99915
      C    8    0.04233      0.99949     1.94737    0.01081     2.95767
      C    9   -0.31766      0.99970     2.31428    0.00369     3.31766
      C   10   -0.20430      0.99966     2.19752    0.00711     3.20430
      C   11   -0.25399      0.99964     2.24584    0.00851     3.25399
      C   12    0.38047      0.99976     1.60083    0.01894     2.61953
      O   13   -0.28727      0.99988     3.27471    0.01267     4.28727
      O   14   -0.32642      0.99978     3.31026    0.01638     4.32642
      C   15    0.03158      0.99952     1.95857    0.01034     2.96842
      C   16    0.18047      0.99945     1.81189    0.00819     2.81953
      C   17   -0.13421      0.99945     2.12480    0.00996     3.13421
      C   18    0.11084      0.99953     1.87963    0.01000     2.88916
      C   19   -0.32508      0.99970     2.32207    0.00331     3.32508
      C   20    0.14728      0.99954     1.84802    0.00516     2.85272
      C   21    0.34304      0.99900     1.64548    0.01248     2.65696
      C   22    0.07405      0.99945     1.91501    0.01148     2.92595
      C   23   -0.04794      0.99929     2.03719    0.01146     3.04794
      C   24   -0.02281      0.99942     2.01366    0.00973     3.02281
      C   25    0.08290      0.99952     1.90640    0.01118     2.91710
      C   26   -0.63782      0.99956     2.60681    0.03145     3.63782
      C   27   -0.28070      0.99964     2.27231    0.00875     3.28070
      C   28    0.12272      0.99930     1.86979    0.00819     2.87728
      C   29    0.07181      0.99949     1.91768    0.01102     2.92819
      C   30   -0.01335      0.99940     2.00520    0.00875     3.01335
      C   31   -0.00613      0.99941     1.99684    0.00988     3.00613
      C   32    0.05820      0.99950     1.93170    0.01060     2.94180
      C   33   -0.31771      0.99970     2.31416    0.00385     3.31771
      C   34   -0.21505      0.99968     2.20785    0.00752     3.21505
      C   35   -0.25211      0.99963     2.24352    0.00895     3.25211
      C   36    0.38300      0.99975     1.59795    0.01930     2.61700
      O   37   -0.28928      0.99988     3.27694    0.01246     4.28928
      O   38   -0.33695      0.99977     3.32183    0.01535     4.33695
      N   39   -0.19683      0.99964     2.67343    0.02376     3.69683
      N   40   -0.17011      0.99965     2.64979    0.02067     3.67011
      N   41   -0.23719      0.99960     2.71562    0.02197     3.73719
      N   42   -0.23608      0.99965     2.71667    0.01975     3.73608
     Fe   43    1.12361      8.99192     2.86750    0.01697    11.87639
      O   44   -0.38654      0.99992     3.37811    0.00852     4.38654
      O   45   -0.36411      0.99992     3.34925    0.01494     4.36411
      H   46    0.09661      0.00000     0.40183    0.00156     0.40339
      H   47    0.09991      0.00000     0.39867    0.00142     0.40009
      H   48    0.10928      0.00000     0.38899    0.00172     0.39072
      H   49    0.10176      0.00000     0.39681    0.00142     0.39824
      H   50    0.10831      0.00000     0.39107    0.00062     0.39169
      H   51    0.11343      0.00000     0.38577    0.00080     0.38657
      H   52    0.11073      0.00000     0.38850    0.00078     0.38927
      H   53    0.10482      0.00000     0.39424    0.00094     0.39518
      H   54    0.11617      0.00000     0.38248    0.00135     0.38383
      H   55    0.11900      0.00000     0.38011    0.00088     0.38100
      H   56    0.10156      0.00000     0.39733    0.00110     0.39844
      H   57    0.11787      0.00000     0.38145    0.00068     0.38213
      H   58    0.11721      0.00000     0.38206    0.00073     0.38279
      H   59    0.11016      0.00000     0.38926    0.00058     0.38984
      H   60    0.13134      0.00000     0.36791    0.00075     0.36866
      H   61    0.11215      0.00000     0.38731    0.00055     0.38785
      H   62    0.11825      0.00000     0.38071    0.00104     0.38175
      H   63    0.19531      0.00000     0.30380    0.00089     0.30469
      H   64    0.20779      0.00000     0.28937    0.00284     0.29221
      H   65    0.21603      0.00000     0.28274    0.00124     0.28397
      H   66    0.10917      0.00000     0.38981    0.00102     0.39083
      H   67    0.08635      0.00000     0.41211    0.00154     0.41365
      H   68    0.06439      0.00000     0.43422    0.00139     0.43561
      H   69    0.10803      0.00000     0.39123    0.00073     0.39197
      H   70    0.11311      0.00000     0.38610    0.00079     0.38689
      H   71    0.11120      0.00000     0.38821    0.00059     0.38880
      H   72    0.10955      0.00000     0.38953    0.00092     0.39045
      H   73    0.11330      0.00000     0.38576    0.00095     0.38670
      H   74    0.11731      0.00000     0.38179    0.00090     0.38269
      H   75    0.11870      0.00000     0.38051    0.00079     0.38130
      H   76    0.24990      0.00000     0.24873    0.00138     0.25010
      H   77    0.25394      0.00000     0.24431    0.00174     0.24606
      H   78    0.21388      0.00000     0.28240    0.00372     0.28612
      H   79    0.24463      0.00000     0.25430    0.00107     0.25537
      H   80    0.26018      0.00000     0.23853    0.00128     0.23982
      H   81    0.25358      0.00000     0.24527    0.00115     0.24642
 =======================================================================
   * Total *    2.00000     52.97336   115.46105    0.56559   169.00000

 Normal termination of Gaussian 16 at Sun Sep 18 02:56:24 2022.
