 Gaussian 16, Revision A.03,
 Gaussian 16:  ES64L-G16RevA.03 25-Dec-2016

 ----------------------------------------------------------------------
 # PBE1PBE/def2TZVP empiricaldispersion=GD3BJ int=(grid=ultrafine) geom
 =check guess=read pop=nbo
 ----------------------------------------------------------------------

 -------------
 1ccg_II_S_nbo
 -------------
 Structure from the checkpoint file:  "1ccg_II_S.chk"
 Charge =  0 Multiplicity = 1

                         Standard orientation:
 ---------------------------------------------------------------------
 Center     Atomic      Atomic             Coordinates (Angstroms)
 Number     Number       Type             X           Y           Z
 ---------------------------------------------------------------------
      1          6           0       -2.341147   -0.087175    0.262138
      2          6           0        0.995264   -3.454204   -0.237578
      3          6           0        4.282185   -0.048016   -0.646326
      4          6           0        0.880258    3.318637   -0.398269
      5          6           0       -1.739433   -1.335050    0.166899
      6          6           0       -2.438089   -2.529722    0.156800
      7          6           0       -1.460638   -3.540642    0.036331
      8          6           0       -0.253692   -2.860163   -0.068963
      9          6           0       -1.671537   -5.060417    0.072694
     10          6           0       -3.964882   -2.642523    0.252103
     11          6           0       -4.716174   -2.701943   -1.043627
     12          6           0       -6.240043   -2.788572   -0.864662
     13          8           0       -6.753382   -3.808122   -0.399679
     14          8           0       -6.965770   -1.850150   -1.195826
     15          6           0        2.242116   -2.822105   -0.302203
     16          6           0        3.460591   -3.503376   -0.345264
     17          6           0        4.422473   -2.503552   -0.389279
     18          6           0        3.711319   -1.300676   -0.442255
     19          6           0        3.589811   -5.017051   -0.203352
     20          6           0        5.826668   -2.547984   -0.353391
     21          6           0        6.688241   -3.688815   -0.192611
     22          6           0        3.655693    1.203852   -0.694268
     23          6           0        4.309907    2.399294   -0.985190
     24          6           0        3.276689    3.357698   -0.976926
     25          6           0        2.117318    2.687864   -0.616413
     26          6           0        5.810632    2.552230   -1.345141
     27          6           0        3.268335    4.743920   -1.202791
     28          6           0        4.379370    5.643972   -1.278697
     29          6           0       -0.336058    2.734044   -0.104899
     30          6           0       -1.495196    3.413133    0.211575
     31          6           0       -2.441354    2.395890    0.381751
     32          6           0       -1.777510    1.194879    0.181837
     33          6           0       -1.669620    4.913025    0.468814
     34          6           0       -3.898665    2.565334    0.794718
     35          6           0       -4.837188    2.634942   -0.396513
     36          6           0       -6.308954    2.666210   -0.062378
     37          8           0       -7.093116    2.218160   -0.891441
     38          8           0       -6.690412    3.138002    1.006424
     39          7           0       -0.424535   -1.539306    0.027156
     40          7           0        2.404121   -1.502698   -0.273888
     41          7           0        2.336094    1.381642   -0.480508
     42          7           0       -0.507987    1.413529   -0.078889
     43         26           0        0.959964   -0.045150   -0.000976
     44          7           0        2.280541   -0.306056    3.723406
     45          6           0        1.737098   -0.806619    2.654394
     46          7           0        1.259811    0.189171    1.959721
     47          6           0        1.499839    1.300357    2.584281
     48          6           0        2.171460    0.990545    3.751289
     49          1           0        2.780947   -0.819336    4.373207
     50          8           0        0.651998   -0.387767   -1.932913
     51          1           0       -3.399030   -0.106564    0.421534
     52          1           0        1.001868   -4.520318   -0.328448
     53          1           0        5.343079   -0.040119   -0.785404
     54          1           0        0.881058    4.386340   -0.468343
     55          1           0       -0.824353   -5.548564   -0.361923
     56          1           0       -1.785917   -5.380454    1.087284
     57          1           0       -2.551373   -5.311778   -0.481928
     58          1           0       -4.284954   -1.735671    0.721224
     59          1           0       -4.148069   -3.583896    0.726613
     60          1           0       -4.423065   -3.618794   -1.510930
     61          1           0       -4.530858   -1.768772   -1.533269
     62          1           0        3.941349   -5.432917   -1.124426
     63          1           0        4.284184   -5.243998    0.578466
     64          1           0        2.634516   -5.435739    0.035422
     65          1           0        6.322107   -1.605619   -0.460107
     66          1           0        6.266819   -4.665859   -0.079973
     67          1           0        7.750470   -3.560279   -0.185667
     68          1           0        6.492506    3.366680   -1.216231
     69          1           0        5.387840    3.251809   -2.035601
     70          1           0        5.879880    2.561583   -0.277425
     71          1           0        2.303197    5.186301   -1.335858
     72          1           0        5.376169    5.275014   -1.155558
     73          1           0        4.212819    6.685514   -1.458557
     74          1           0       -2.559535    5.256870   -0.015667
     75          1           0       -1.746436    5.087769    1.521650
     76          1           0       -0.824731    5.442179    0.080150
     77          1           0       -3.961501    3.517706    1.278390
     78          1           0       -4.161496    1.675911    1.328335
     79          1           0       -4.685522    1.721866   -0.933346
     80          1           0       -4.631324    3.573210   -0.867865
     81          1           0        1.689860   -1.843012    2.392559
     82          1           0        1.226705    2.281046    2.254818
     83          1           0        2.521993    1.663246    4.505942
     84          1           0        1.048135   -0.131521   -2.768983
     85          1           0       -0.208135    0.029447   -1.845145
     86          1           0       -7.489499   -4.224820   -0.853656
     87          1           0       -7.130146    3.991169    1.024820
 ---------------------------------------------------------------------

 SCF Done:  E(RPBE1PBE) =  -3399.15226835     A.U. after    1 cycles

 The electronic state is 1-A.
 Alpha  occ. eigenvalues -- -256.30849 -30.07509 -25.90275 -25.90043 -25.89957
 Alpha  occ. eigenvalues --  -19.25250 -19.24848 -19.22661 -19.16701 -19.16605
 Alpha  occ. eigenvalues --  -14.45919 -14.39564 -14.36783 -14.36100 -14.35923
 Alpha  occ. eigenvalues --  -14.35757 -10.33996 -10.33625 -10.28092 -10.26926
 Alpha  occ. eigenvalues --  -10.25523 -10.24372 -10.24053 -10.24026 -10.23772
 Alpha  occ. eigenvalues --  -10.23718 -10.23665 -10.23655 -10.23617 -10.23566
 Alpha  occ. eigenvalues --  -10.23509 -10.22979 -10.22594 -10.22532 -10.22364
 Alpha  occ. eigenvalues --  -10.22324 -10.22283 -10.22147 -10.22141 -10.22047
 Alpha  occ. eigenvalues --  -10.21973 -10.21930 -10.21918 -10.21884 -10.21843
 Alpha  occ. eigenvalues --  -10.21786 -10.21720 -10.21716 -10.21617 -10.21577
 Alpha  occ. eigenvalues --  -10.21424 -10.21326 -10.19283  -3.42403  -2.18389
 Alpha  occ. eigenvalues --   -2.17769  -2.17689  -1.17322  -1.17163  -1.10760
 Alpha  occ. eigenvalues --   -1.06685  -1.02541  -1.01989  -1.00313  -0.99624
 Alpha  occ. eigenvalues --   -0.99261  -0.98484  -0.94471  -0.85047  -0.84441
 Alpha  occ. eigenvalues --   -0.83814  -0.83595  -0.82654  -0.81953  -0.81612
 Alpha  occ. eigenvalues --   -0.79755  -0.79703  -0.78909  -0.78322  -0.76296
 Alpha  occ. eigenvalues --   -0.75320  -0.74016  -0.73595  -0.72954  -0.71894
 Alpha  occ. eigenvalues --   -0.70715  -0.69719  -0.69471  -0.67767  -0.67028
 Alpha  occ. eigenvalues --   -0.66805  -0.65451  -0.64974  -0.64415  -0.62937
 Alpha  occ. eigenvalues --   -0.62052  -0.60856  -0.59372  -0.58809  -0.58429
 Alpha  occ. eigenvalues --   -0.56971  -0.55828  -0.55194  -0.54271  -0.53307
 Alpha  occ. eigenvalues --   -0.52946  -0.52907  -0.51502  -0.51153  -0.50906
 Alpha  occ. eigenvalues --   -0.50321  -0.50183  -0.50057  -0.49827  -0.49677
 Alpha  occ. eigenvalues --   -0.49072  -0.48977  -0.48825  -0.48642  -0.47292
 Alpha  occ. eigenvalues --   -0.46599  -0.46237  -0.46026  -0.45732  -0.45664
 Alpha  occ. eigenvalues --   -0.45033  -0.44822  -0.44631  -0.44407  -0.44270
 Alpha  occ. eigenvalues --   -0.44050  -0.43468  -0.43162  -0.42936  -0.42591
 Alpha  occ. eigenvalues --   -0.42209  -0.42049  -0.41427  -0.41296  -0.40766
 Alpha  occ. eigenvalues --   -0.40631  -0.40444  -0.39673  -0.39394  -0.39238
 Alpha  occ. eigenvalues --   -0.38519  -0.38420  -0.38185  -0.37652  -0.37310
 Alpha  occ. eigenvalues --   -0.37058  -0.36720  -0.36598  -0.36405  -0.36176
 Alpha  occ. eigenvalues --   -0.35704  -0.35389  -0.34705  -0.34401  -0.34095
 Alpha  occ. eigenvalues --   -0.34032  -0.33134  -0.32217  -0.31934  -0.31757
 Alpha  occ. eigenvalues --   -0.31249  -0.30804  -0.30384  -0.30283  -0.28169
 Alpha  occ. eigenvalues --   -0.27750  -0.26891  -0.26723  -0.25778  -0.24332
 Alpha  occ. eigenvalues --   -0.24060  -0.23591  -0.21991  -0.20614  -0.20380
 Alpha  occ. eigenvalues --   -0.19494  -0.18913  -0.18795  -0.18419
 Alpha virt. eigenvalues --   -0.08090  -0.07796  -0.04064  -0.01041  -0.00863
 Alpha virt. eigenvalues --   -0.00502   0.00063   0.01083   0.01493   0.01944
 Alpha virt. eigenvalues --    0.03177   0.03466   0.03760   0.04075   0.04347

 Mulliken charges:
               1
     1  C   -0.429543
     2  C   -0.499034
     3  C   -0.524286
     4  C   -0.528116
     5  C    0.256783
     6  C    0.057105
     7  C   -0.089913
     8  C    0.337861
     9  C   -0.407659
    10  C   -0.453153
    11  C   -0.062824
    12  C    0.226667
    13  O   -0.335149
    14  O   -0.337397
    15  C    0.277720
    16  C   -0.100104
    17  C    0.007942
    18  C    0.350373
    19  C   -0.394988
    20  C   -0.150662
    21  C   -0.301814
    22  C    0.266469
    23  C   -0.311653
    24  C    0.056496
    25  C    0.260345
    26  C   -0.589823
    27  C   -0.127028
    28  C   -0.311672
    29  C    0.301724
    30  C   -0.124435
    31  C    0.076897
    32  C    0.222252
    33  C   -0.401899
    34  C   -0.345036
    35  C   -0.151479
    36  C    0.229884
    37  O   -0.308391
    38  O   -0.341156
    39  N   -0.072593
    40  N   -0.090417
    41  N   -0.034260
    42  N   -0.182844
    43  Fe  -0.161323
    44  N   -0.160241
    45  C    0.026521
    46  N    0.012803
    47  C   -0.116884
    48  C   -0.085509
    49  H    0.223798
    50  O   -0.483083
    51  H    0.087326
    52  H    0.073838
    53  H    0.157991
    54  H    0.066197
    55  H    0.131717
    56  H    0.144877
    57  H    0.129429
    58  H    0.126158
    59  H    0.121694
    60  H    0.095635
    61  H    0.123736
    62  H    0.154093
    63  H    0.131727
    64  H    0.116206
    65  H    0.095486
    66  H    0.122126
    67  H    0.132969
    68  H    0.252416
    69  H    0.233775
    70  H    0.245853
    71  H    0.106546
    72  H    0.097968
    73  H    0.131310
    74  H    0.128798
    75  H    0.144830
    76  H    0.130265
    77  H    0.098408
    78  H    0.122452
    79  H    0.127489
    80  H    0.108583
    81  H    0.181441
    82  H    0.153473
    83  H    0.153180
    84  H    0.334796
    85  H    0.353043
    86  H    0.354057
    87  H    0.352842
 Sum of Mulliken charges =  -0.00000

 Dipole moment (field-independent basis, Debye):
    X=              2.1279    Y=              0.2208    Z=              5.8424  Tot=              6.2218
 Quadrupole moment (field-independent basis, Debye-Ang):
   XX=           -323.1472   YY=           -240.8927   ZZ=           -274.4124
   XY=              8.4614   XZ=              8.6584   YZ=              6.0973

 Summary of Natural Population Analysis:

                                       Natural Population
                Natural  -----------------------------------------------
    Atom  No    Charge         Core      Valence    Rydberg      Total
 -----------------------------------------------------------------------
      C    1   -0.21130      1.99909     4.19580    0.01641     6.21130
      C    2   -0.19535      1.99908     4.18036    0.01590     6.19535
      C    3   -0.18229      1.99908     4.16710    0.01611     6.18229
      C    4   -0.20430      1.99907     4.18964    0.01558     6.20430
      C    5    0.12090      1.99893     3.85891    0.02126     5.87910
      C    6   -0.02608      1.99887     4.00848    0.01874     6.02608
      C    7   -0.01935      1.99888     4.00404    0.01642     6.01935
      C    8    0.12434      1.99895     3.85482    0.02189     5.87566
      C    9   -0.63403      1.99940     4.62725    0.00739     6.63403
      C   10   -0.42033      1.99932     4.40717    0.01384     6.42033
      C   11   -0.48987      1.99926     4.47358    0.01703     6.48987
      C   12    0.76062      1.99956     3.20021    0.03960     5.23938
      O   13   -0.67439      1.99957     6.64536    0.02947     8.67439
      O   14   -0.58529      1.99978     6.55969    0.02582     8.58529
      C   15    0.12470      1.99899     3.85460    0.02171     5.87530
      C   16    0.01127      1.99889     3.97254    0.01730     5.98873
      C   17   -0.12687      1.99890     4.10787    0.02010     6.12687
      C   18    0.15560      1.99904     3.82394    0.02142     5.84440
      C   19   -0.63527      1.99940     4.62835    0.00752     6.63527
      C   20   -0.18142      1.99929     4.16796    0.01417     6.18142
      C   21   -0.40445      1.99946     4.39298    0.01201     6.40445
      C   22    0.09773      1.99889     3.88116    0.02222     5.90227
      C   23    0.08111      1.99850     3.89844    0.02195     5.91889
      C   24   -0.17508      1.99885     4.15622    0.02001     6.17508
      C   25    0.16054      1.99901     3.81866    0.02178     5.83946
      C   26   -1.24426      1.99910     5.18343    0.06173     7.24426
      C   27   -0.17766      1.99928     4.16422    0.01415     6.17766
      C   28   -0.42495      1.99945     4.41278    0.01272     6.42495
      C   29    0.11556      1.99893     3.86313    0.02238     5.88444
      C   30   -0.02736      1.99882     4.01138    0.01716     6.02736
      C   31   -0.02313      1.99889     4.00526    0.01897     6.02313
      C   32    0.12762      1.99898     3.85179    0.02161     5.87238
      C   33   -0.63363      1.99940     4.62669    0.00754     6.63363
      C   34   -0.42655      1.99936     4.41260    0.01459     6.42655
      C   35   -0.50147      1.99927     4.48473    0.01747     6.50147
      C   36    0.76043      1.99950     3.20132    0.03875     5.23957
      O   37   -0.55625      1.99977     6.53110    0.02538     8.55625
      O   38   -0.68450      1.99955     6.65423    0.03072     8.68450
      N   39   -0.39013      1.99930     5.34340    0.04744     7.39013
      N   40   -0.37549      1.99929     5.32777    0.04843     7.37549
      N   41   -0.36698      1.99931     5.32171    0.04595     7.36698
      N   42   -0.41853      1.99927     5.37270    0.04656     7.41853
     Fe   43    0.20699     17.99214     7.76184    0.03903    25.79301
      N   44   -0.44993      1.99932     5.42866    0.02195     7.44993
      C   45    0.17419      1.99933     3.80569    0.02079     5.82581
      N   46   -0.33893      1.99927     5.29166    0.04800     7.33893
      C   47   -0.04726      1.99917     4.02619    0.02190     6.04726
      C   48   -0.11618      1.99925     4.09764    0.01929     6.11618
      H   49    0.41055      0.00000     0.58776    0.00169     0.58945
      O   50   -0.78865      1.99980     6.76819    0.02067     8.78865
      H   51    0.19850      0.00000     0.79873    0.00277     0.80150
      H   52    0.20069      0.00000     0.79625    0.00306     0.79931
      H   53    0.22550      0.00000     0.77176    0.00274     0.77450
      H   54    0.20239      0.00000     0.79509    0.00252     0.79761
      H   55    0.21718      0.00000     0.78156    0.00125     0.78282
      H   56    0.22133      0.00000     0.77705    0.00161     0.77867
      H   57    0.21692      0.00000     0.78148    0.00161     0.78308
      H   58    0.21802      0.00000     0.77994    0.00204     0.78198
      H   59    0.22009      0.00000     0.77740    0.00251     0.77991
      H   60    0.21929      0.00000     0.77872    0.00199     0.78071
      H   61    0.23945      0.00000     0.75880    0.00175     0.76055
      H   62    0.22578      0.00000     0.77237    0.00185     0.77422
      H   63    0.22113      0.00000     0.77693    0.00194     0.77887
      H   64    0.21424      0.00000     0.78446    0.00130     0.78576
      H   65    0.20216      0.00000     0.79589    0.00196     0.79784
      H   66    0.18709      0.00000     0.81116    0.00176     0.81291
      H   67    0.19945      0.00000     0.79929    0.00126     0.80055
      H   68    0.38836      0.00000     0.60996    0.00168     0.61164
      H   69    0.42344      0.00000     0.57197    0.00459     0.57656
      H   70    0.42289      0.00000     0.57472    0.00239     0.57711
      H   71    0.20064      0.00000     0.79729    0.00206     0.79936
      H   72    0.17874      0.00000     0.81860    0.00265     0.82126
      H   73    0.20212      0.00000     0.79654    0.00134     0.79788
      H   74    0.21604      0.00000     0.78239    0.00157     0.78396
      H   75    0.22229      0.00000     0.77607    0.00164     0.77771
      H   76    0.21867      0.00000     0.78014    0.00119     0.78133
      H   77    0.21824      0.00000     0.77985    0.00191     0.78176
      H   78    0.21752      0.00000     0.77998    0.00250     0.78248
      H   79    0.23934      0.00000     0.75884    0.00181     0.76066
      H   80    0.22710      0.00000     0.77124    0.00167     0.77290
      H   81    0.22774      0.00000     0.77046    0.00180     0.77226
      H   82    0.22727      0.00000     0.77135    0.00138     0.77273
      H   83    0.22473      0.00000     0.77407    0.00120     0.77527
      H   84    0.49890      0.00000     0.49862    0.00247     0.50110
      H   85    0.50907      0.00000     0.48701    0.00393     0.49093
      H   86    0.51632      0.00000     0.48095    0.00273     0.48368
      H   87    0.51673      0.00000     0.48070    0.00257     0.48327
 =======================================================================
   * Total *   -0.00000    113.95383   252.80866    1.23751   368.00000

 Normal termination of Gaussian 16 at Fri Sep 16 14:34:59 2022.
