 Gaussian 16, Revision A.03,
 Gaussian 16:  AM64L-G16RevA.03 25-Dec-2016

 ----------------------------------------------------------------------
 # PBE1PBE/def2TZVP empiricaldispersion=GD3BJ int=(grid=ultrafine) geom
 =check pop=nbo
 ----------------------------------------------------------------------

 ----------
 1ccg_III_H
 ----------
 Structure from the checkpoint file:  "1ccg_III_H.chk"
 Charge =  1 Multiplicity = 6

                         Standard orientation:
 ---------------------------------------------------------------------
 Center     Atomic      Atomic             Coordinates (Angstroms)
 Number     Number       Type             X           Y           Z
 ---------------------------------------------------------------------
      1          6           0       -2.341147   -0.087175    0.262138
      2          6           0        0.995264   -3.454204   -0.237578
      3          6           0        4.282185   -0.048016   -0.646326
      4          6           0        0.880258    3.318637   -0.398269
      5          6           0       -1.739433   -1.335050    0.166899
      6          6           0       -2.438089   -2.529722    0.156800
      7          6           0       -1.460638   -3.540642    0.036331
      8          6           0       -0.253692   -2.860163   -0.068963
      9          6           0       -1.671537   -5.060417    0.072694
     10          6           0       -3.964882   -2.642523    0.252103
     11          6           0       -4.716174   -2.701943   -1.043627
     12          6           0       -6.240043   -2.788572   -0.864662
     13          8           0       -6.753382   -3.808122   -0.399679
     14          8           0       -6.965770   -1.850150   -1.195826
     15          6           0        2.242116   -2.822105   -0.302203
     16          6           0        3.460591   -3.503376   -0.345264
     17          6           0        4.422473   -2.503552   -0.389279
     18          6           0        3.711319   -1.300676   -0.442255
     19          6           0        3.589811   -5.017051   -0.203352
     20          6           0        5.826668   -2.547984   -0.353391
     21          6           0        6.688241   -3.688815   -0.192611
     22          6           0        3.655693    1.203852   -0.694268
     23          6           0        4.309907    2.399294   -0.985190
     24          6           0        3.276689    3.357698   -0.976926
     25          6           0        2.117318    2.687864   -0.616413
     26          6           0        5.810632    2.552230   -1.345141
     27          6           0        3.268335    4.743920   -1.202791
     28          6           0        4.379370    5.643972   -1.278697
     29          6           0       -0.336058    2.734044   -0.104899
     30          6           0       -1.495196    3.413133    0.211575
     31          6           0       -2.441354    2.395890    0.381751
     32          6           0       -1.777510    1.194879    0.181837
     33          6           0       -1.669620    4.913025    0.468814
     34          6           0       -3.898665    2.565334    0.794718
     35          6           0       -4.837188    2.634942   -0.396513
     36          6           0       -6.308954    2.666210   -0.062378
     37          8           0       -7.093116    2.218160   -0.891441
     38          8           0       -6.690412    3.138002    1.006424
     39          7           0       -0.424535   -1.539306    0.027156
     40          7           0        2.404121   -1.502698   -0.273888
     41          7           0        2.336094    1.381642   -0.480508
     42          7           0       -0.507987    1.413529   -0.078889
     43         26           0        0.959964   -0.045150   -0.000976
     44          7           0        2.280541   -0.306056    3.723406
     45          6           0        1.737098   -0.806619    2.654394
     46          7           0        1.259811    0.189171    1.959721
     47          6           0        1.499839    1.300357    2.584281
     48          6           0        2.171460    0.990545    3.751289
     49          1           0        2.780947   -0.819336    4.373207
     50          8           0        0.651998   -0.387767   -1.932913
     51          1           0       -3.399030   -0.106564    0.421534
     52          1           0        1.001868   -4.520318   -0.328448
     53          1           0        5.343079   -0.040119   -0.785404
     54          1           0        0.881058    4.386340   -0.468343
     55          1           0       -0.824353   -5.548564   -0.361923
     56          1           0       -1.785917   -5.380454    1.087284
     57          1           0       -2.551373   -5.311778   -0.481928
     58          1           0       -4.284954   -1.735671    0.721224
     59          1           0       -4.148069   -3.583896    0.726613
     60          1           0       -4.423065   -3.618794   -1.510930
     61          1           0       -4.530858   -1.768772   -1.533269
     62          1           0        3.941349   -5.432917   -1.124426
     63          1           0        4.284184   -5.243998    0.578466
     64          1           0        2.634516   -5.435739    0.035422
     65          1           0        6.322107   -1.605619   -0.460107
     66          1           0        6.266819   -4.665859   -0.079973
     67          1           0        7.750470   -3.560279   -0.185667
     68          1           0        6.492506    3.366680   -1.216231
     69          1           0        5.387840    3.251809   -2.035601
     70          1           0        5.879880    2.561583   -0.277425
     71          1           0        2.303197    5.186301   -1.335858
     72          1           0        5.376169    5.275014   -1.155558
     73          1           0        4.212819    6.685514   -1.458557
     74          1           0       -2.559535    5.256870   -0.015667
     75          1           0       -1.746436    5.087769    1.521650
     76          1           0       -0.824731    5.442179    0.080150
     77          1           0       -3.961501    3.517706    1.278390
     78          1           0       -4.161496    1.675911    1.328335
     79          1           0       -4.685522    1.721866   -0.933346
     80          1           0       -4.631324    3.573210   -0.867865
     81          1           0        1.689860   -1.843012    2.392559
     82          1           0        1.226705    2.281046    2.254818
     83          1           0        2.521993    1.663246    4.505942
     84          1           0        1.048135   -0.131521   -2.768983
     85          1           0       -0.208135    0.029447   -1.845145
     86          1           0       -7.489499   -4.224820   -0.853656
     87          1           0       -7.130146    3.991169    1.024820
 ---------------------------------------------------------------------

 SCF Done:  E(UPBE1PBE) =  -3398.96419353     A.U. after   36 cycles

 Alpha virt. eigenvalues --    0.52795   0.52946   0.53079   0.53291   0.53749
 Alpha virt. eigenvalues --    0.53906   0.54033   0.54502   0.54644   0.54917
 Alpha virt. eigenvalues --    0.54969   0.55433   0.55802   0.55851   0.56090

  Beta  occ. eigenvalues -- -256.56804 -30.29857 -26.13102 -26.13045 -26.13020
  Beta  occ. eigenvalues --  -19.35059 -19.31948 -19.31648 -19.23697 -19.23596
  Beta  occ. eigenvalues --  -14.57341 -14.51667 -14.48113 -14.47555 -14.47376
  Beta  occ. eigenvalues --  -14.47258 -10.41145 -10.40782 -10.40336 -10.37635
  Beta  occ. eigenvalues --  -10.36853 -10.35888 -10.35831 -10.35611 -10.35215
  Beta  occ. eigenvalues --  -10.35139 -10.35134 -10.35131 -10.35088 -10.35081
  Beta  occ. eigenvalues --  -10.33286 -10.33079 -10.32909 -10.32888 -10.32885
  Beta  occ. eigenvalues --  -10.32868 -10.32791 -10.32575 -10.32553 -10.32539
  Beta  occ. eigenvalues --  -10.32438 -10.32357 -10.32249 -10.32163 -10.31540
  Beta  occ. eigenvalues --  -10.31472 -10.31188 -10.31083 -10.30797 -10.30667
  Beta  occ. eigenvalues --  -10.30637 -10.30100 -10.28999  -3.58964  -2.33564
  Beta  occ. eigenvalues --   -2.33188  -2.33134  -1.24088  -1.24014  -1.22502
  Beta  occ. eigenvalues --   -1.19551  -1.11978  -1.11175  -1.10814  -1.10030
  Beta  occ. eigenvalues --   -1.09485  -1.08921  -1.06500  -0.95561  -0.95240
  Beta  occ. eigenvalues --   -0.93591  -0.93365  -0.93076  -0.92688  -0.92436
  Beta  occ. eigenvalues --   -0.91369  -0.89758  -0.88452  -0.88282  -0.86463
  Beta  occ. eigenvalues --   -0.86209  -0.84001  -0.83955  -0.82510  -0.81826
  Beta  occ. eigenvalues --   -0.80860  -0.79421  -0.78256  -0.77986  -0.77200
  Beta  occ. eigenvalues --   -0.76841  -0.76293  -0.74045  -0.73474  -0.73065
  Beta  occ. eigenvalues --   -0.72422  -0.72124  -0.71553  -0.70176  -0.69705
  Beta  occ. eigenvalues --   -0.67504  -0.66507  -0.65676  -0.64867  -0.63726
  Beta  occ. eigenvalues --   -0.63453  -0.62994  -0.61516  -0.60850  -0.60708
  Beta  occ. eigenvalues --   -0.60520  -0.60223  -0.59731  -0.59450  -0.59261
  Beta  occ. eigenvalues --   -0.58596  -0.58491  -0.58338  -0.58037  -0.57321
  Beta  occ. eigenvalues --   -0.57233  -0.56837  -0.56148  -0.55839  -0.55527
  Beta  occ. eigenvalues --   -0.55226  -0.54951  -0.54520  -0.54258  -0.53955
  Beta  occ. eigenvalues --   -0.53412  -0.53286  -0.53156  -0.53018  -0.52332
  Beta  occ. eigenvalues --   -0.52022  -0.51803  -0.51631  -0.51351  -0.50852
  Beta  occ. eigenvalues --   -0.50772  -0.50667  -0.50129  -0.49771  -0.49226
  Beta  occ. eigenvalues --   -0.48832  -0.48456  -0.48250  -0.48141  -0.48044
  Beta  occ. eigenvalues --   -0.47637  -0.47135  -0.46996  -0.46686  -0.46472
  Beta  occ. eigenvalues --   -0.45961  -0.45556  -0.45466  -0.45223  -0.44175
  Beta  occ. eigenvalues --   -0.43827  -0.42848  -0.42564  -0.42417  -0.41686
  Beta  occ. eigenvalues --   -0.41458  -0.41078  -0.39387  -0.39096  -0.38910
  Beta  occ. eigenvalues --   -0.38595  -0.37120  -0.35122  -0.34518  -0.34279
  Beta  occ. eigenvalues --   -0.33545  -0.33294  -0.31988  -0.30663  -0.29971
  Beta  occ. eigenvalues --   -0.29306
  Beta virt. eigenvalues --   -0.21408  -0.21125  -0.20139  -0.18117  -0.17850
  Beta virt. eigenvalues --   -0.14249  -0.14120  -0.13411  -0.10710  -0.10287
  Beta virt. eigenvalues --   -0.09473  -0.08567  -0.07757  -0.07370  -0.06857

 Mulliken charges and spin densities:
               1          2
     1  C   -0.439768  -0.020580
     2  C   -0.491562  -0.015464
     3  C   -0.524372  -0.015644
     4  C   -0.531715  -0.013473
     5  C    0.283693   0.019840
     6  C    0.067418   0.017244
     7  C   -0.085753   0.023870
     8  C    0.355825   0.008065
     9  C   -0.391407   0.000485
    10  C   -0.437001  -0.000057
    11  C   -0.072344   0.000736
    12  C    0.230962   0.000072
    13  O   -0.333891   0.000009
    14  O   -0.327373   0.000198
    15  C    0.285004   0.011352
    16  C   -0.100238   0.017518
    17  C    0.027985   0.017108
    18  C    0.366908   0.013090
    19  C   -0.383439   0.000421
    20  C   -0.163183  -0.011067
    21  C   -0.260150   0.021584
    22  C    0.303195   0.013127
    23  C   -0.315846   0.013460
    24  C    0.068987   0.026594
    25  C    0.278106   0.010670
    26  C   -0.571324   0.005808
    27  C   -0.136894  -0.017261
    28  C   -0.269077   0.030946
    29  C    0.326094   0.010091
    30  C   -0.119767   0.021330
    31  C    0.082430   0.014609
    32  C    0.249879   0.018154
    33  C   -0.385622   0.000468
    34  C   -0.333608   0.000048
    35  C   -0.154394   0.000760
    36  C    0.231683   0.000087
    37  O   -0.295281   0.000259
    38  O   -0.341063   0.000005
    39  N   -0.102579   0.067579
    40  N   -0.126994   0.069005
    41  N   -0.072690   0.058877
    42  N   -0.223138   0.060352
    43  Fe   0.017096   4.383895
    44  N   -0.145261   0.003409
    45  C    0.040073   0.016065
    46  N    0.006821   0.042841
    47  C   -0.114410   0.001237
    48  C   -0.064775   0.008454
    49  H    0.243894   0.001236
    50  O   -0.467506   0.045831
    51  H    0.108302  -0.000136
    52  H    0.094592   0.000084
    53  H    0.176025   0.000133
    54  H    0.084501  -0.000199
    55  H    0.140322   0.000068
    56  H    0.160865   0.000862
    57  H    0.145883   0.000595
    58  H    0.129005   0.000186
    59  H    0.135634   0.000418
    60  H    0.104940  -0.000023
    61  H    0.122175   0.000036
    62  H    0.172020   0.000639
    63  H    0.143500   0.000478
    64  H    0.123311   0.000034
    65  H    0.106108   0.000442
    66  H    0.138680  -0.000906
    67  H    0.155550  -0.000887
    68  H    0.269661   0.001085
    69  H    0.239861  -0.000154
    70  H    0.254538   0.000472
    71  H    0.119527   0.000873
    72  H    0.112417  -0.001319
    73  H    0.155097  -0.001311
    74  H    0.146023   0.000475
    75  H    0.159296   0.000790
    76  H    0.137271   0.000024
    77  H    0.113177   0.000461
    78  H    0.126560   0.000158
    79  H    0.124503   0.000030
    80  H    0.117536  -0.000007
    81  H    0.198784   0.000205
    82  H    0.172529   0.001562
    83  H    0.183480   0.000791
    84  H    0.356423   0.008473
    85  H    0.361834   0.002333
    86  H    0.364496  -0.000002
    87  H    0.361946  -0.000000
 Sum of Mulliken charges =   1.00000   5.00000

 Dipole moment (field-independent basis, Debye):
    X=              7.8860    Y=              0.7097    Z=              6.3417  Tot=             10.1444
 Quadrupole moment (field-independent basis, Debye-Ang):
   XX=           -249.6118   YY=           -185.2731   ZZ=           -258.5429
   XY=              9.9436   XZ=              6.6848   YZ=              4.2931

 Summary of Natural Population Analysis:

                                       Natural Population
                Natural  -----------------------------------------------
    Atom  No    Charge         Core      Valence    Rydberg      Total
 -----------------------------------------------------------------------
      C    1   -0.10357      0.99954     2.09622    0.00781     3.10357
      C    2   -0.09151      0.99950     2.08480    0.00722     3.09151
      C    3   -0.09087      0.99954     2.08369    0.00764     3.09087
      C    4   -0.09899      0.99953     2.09222    0.00723     3.09899
      C    5    0.07083      0.99944     1.91965    0.01008     2.92917
      C    6    0.00786      0.99944     1.98352    0.00919     2.99214
      C    7    0.02144      0.99929     1.96851    0.01075     2.97856
      C    8    0.06774      0.99946     1.92185    0.01095     2.93226
      C    9   -0.31871      0.99970     2.31549    0.00353     3.31871
      C   10   -0.21075      0.99966     2.20448    0.00661     3.21075
      C   11   -0.24381      0.99963     2.23578    0.00840     3.24381
      C   12    0.37902      0.99978     1.60154    0.01965     2.62098
      O   13   -0.33582      0.99978     3.32138    0.01465     4.33582
      O   14   -0.28624      0.99989     3.27346    0.01289     4.28624
      C   15    0.07199      0.99948     1.91821    0.01032     2.92801
      C   16    0.02122      0.99944     1.97107    0.00827     2.97878
      C   17   -0.04071      0.99945     2.03166    0.00960     3.04071
      C   18    0.08839      0.99950     1.90183    0.01028     2.91161
      C   19   -0.31799      0.99970     2.31461    0.00369     3.31799
      C   20   -0.10788      0.99964     2.10125    0.00698     3.10788
      C   21   -0.15849      0.99973     2.15337    0.00539     3.15849
      C   22    0.06179      0.99942     1.92816    0.01064     2.93821
      C   23    0.05076      0.99925     1.93912    0.01087     2.94924
      C   24   -0.05923      0.99942     2.05024    0.00957     3.05923
      C   25    0.08904      0.99949     1.90097    0.01050     2.91096
      C   26   -0.60689      0.99954     2.57760    0.02975     3.60689
      C   27   -0.10795      0.99964     2.10136    0.00694     3.10795
      C   28   -0.16457      0.99972     2.15916    0.00568     3.16457
      C   29    0.06364      0.99945     1.92581    0.01111     2.93636
      C   30    0.01495      0.99926     1.97486    0.01093     2.98505
      C   31    0.00794      0.99945     1.98318    0.00942     2.99206
      C   32    0.07311      0.99947     1.91721    0.01022     2.92689
      C   33   -0.31834      0.99970     2.31501    0.00363     3.31834
      C   34   -0.21460      0.99968     2.20776    0.00717     3.21460
      C   35   -0.24951      0.99963     2.24109    0.00878     3.24951
      C   36    0.37838      0.99975     1.60266    0.01921     2.62162
      O   37   -0.27024      0.99988     3.25766    0.01270     4.27024
      O   38   -0.34137      0.99977     3.32633    0.01526     4.34137
      N   39   -0.18217      0.99966     2.65975    0.02276     3.68217
      N   40   -0.17508      0.99966     2.65322    0.02220     3.67508
      N   41   -0.17743      0.99967     2.65631    0.02145     3.67743
      N   42   -0.19559      0.99965     2.67369    0.02225     3.69559
     Fe   43    2.45926      8.99606     1.51037    0.03431    10.54074
      N   44   -0.21311      0.99966     2.70329    0.01016     3.71311
      C   45    0.10662      0.99962     1.88258    0.01117     2.89338
      N   46   -0.17244      0.99965     2.65066    0.02213     3.67244
      C   47   -0.01762      0.99956     2.00760    0.01046     3.01762
      C   48   -0.03669      0.99962     2.02850    0.00857     3.03669
      H   49    0.21281      0.00000     0.28651    0.00068     0.28719
      O   50   -0.36927      0.99991     3.35646    0.01290     4.36927
      H   51    0.10846      0.00000     0.39010    0.00143     0.39154
      H   52    0.10844      0.00000     0.39002    0.00153     0.39156
      H   53    0.12023      0.00000     0.37849    0.00128     0.37977
      H   54    0.10924      0.00000     0.38953    0.00123     0.39076
      H   55    0.11105      0.00000     0.38837    0.00058     0.38895
      H   56    0.11704      0.00000     0.38225    0.00071     0.38296
      H   57    0.11486      0.00000     0.38441    0.00073     0.38514
      H   58    0.10996      0.00000     0.38906    0.00098     0.39004
      H   59    0.11531      0.00000     0.38352    0.00117     0.38469
      H   60    0.11139      0.00000     0.38765    0.00096     0.38861
      H   61    0.11876      0.00000     0.38039    0.00085     0.38124
      H   62    0.11918      0.00000     0.38003    0.00080     0.38082
      H   63    0.11524      0.00000     0.38389    0.00087     0.38476
      H   64    0.10896      0.00000     0.39044    0.00060     0.39104
      H   65    0.10372      0.00000     0.39537    0.00091     0.39628
      H   66    0.09562      0.00000     0.40354    0.00084     0.40438
      H   67    0.10520      0.00000     0.39420    0.00060     0.39480
      H   68    0.20178      0.00000     0.29745    0.00076     0.29822
      H   69    0.21280      0.00000     0.28508    0.00212     0.28720
      H   70    0.21295      0.00000     0.28590    0.00115     0.28705
      H   71    0.10373      0.00000     0.39533    0.00094     0.39627
      H   72    0.09082      0.00000     0.40794    0.00124     0.40918
      H   73    0.10677      0.00000     0.39260    0.00063     0.39323
      H   74    0.11458      0.00000     0.38470    0.00072     0.38542
      H   75    0.11696      0.00000     0.38233    0.00072     0.38304
      H   76    0.11123      0.00000     0.38821    0.00056     0.38877
      H   77    0.11395      0.00000     0.38515    0.00091     0.38605
      H   78    0.11163      0.00000     0.38743    0.00094     0.38837
      H   79    0.11823      0.00000     0.38091    0.00087     0.38177
      H   80    0.11506      0.00000     0.38412    0.00081     0.38494
      H   81    0.12014      0.00000     0.37911    0.00075     0.37986
      H   82    0.11976      0.00000     0.37952    0.00071     0.38024
      H   83    0.12167      0.00000     0.37781    0.00052     0.37833
      H   84    0.26159      0.00000     0.23716    0.00125     0.23841
      H   85    0.26137      0.00000     0.23745    0.00118     0.23863
      H   86    0.26172      0.00000     0.23705    0.00123     0.23828
      H   87    0.26128      0.00000     0.23753    0.00119     0.23872
 =======================================================================
   * Total *    3.00004     56.97638   123.40577    0.61782   180.99996

 Normal termination of Gaussian 16 at Sat Oct  1 15:27:58 2022.
