 Gaussian 16, Revision A.03,
 Gaussian 16:  ES64L-G16RevA.03 25-Dec-2016

 ----------------------------------------------------------------------
 # PBE1PBE/def2TZVP empiricaldispersion=GD3BJ scf=maxcycle=999 geom=che
 ck pop=nbo
 ----------------------------------------------------------------------

 ---------
 1cmq_II_Q
 ---------
 Structure from the checkpoint file:  "1cmq_II_Q.chk"
 Charge =  0 Multiplicity = 5

                         Standard orientation:
 ---------------------------------------------------------------------
 Center     Atomic      Atomic             Coordinates (Angstroms)
 Number     Number       Type             X           Y           Z
 ---------------------------------------------------------------------
      1          6           0       -1.476983   -1.891552    4.935873
      2          6           0       -1.465226   -1.011614    3.699858
      3          7           0       -1.921887    0.224389    3.558864
      4          6           0       -0.944368   -1.340893    2.464748
      5          6           0       -1.715160    0.679865    2.353986
      6          7           0       -1.116079   -0.293146    1.691465
      7          1           0       -2.428962    0.704496    4.231589
      8          6           0        2.413925    0.127313    0.333656
      9          6           0       -1.028379    3.417554   -0.231266
     10          6           0       -4.351611    0.040369   -0.728680
     11          6           0       -0.846614   -3.194579   -0.688065
     12          6           0        1.769904    1.371882    0.285366
     13          6           0        2.426948    2.587812    0.251575
     14          6           0        1.432536    3.559477    0.102105
     15          6           0        0.241079    2.856337    0.009276
     16          6           0        1.601841    5.074697    0.078660
     17          6           0        3.937469    2.777908    0.320853
     18          6           0        4.664881    2.804793   -1.007705
     19          6           0        6.179501    2.919952   -0.860439
     20          8           0        6.691792    3.944651   -0.391978
     21          8           0        6.893830    1.980354   -1.213328
     22          6           0       -2.290910    2.809805   -0.286389
     23          6           0       -3.513302    3.498102   -0.319525
     24          6           0       -4.480050    2.484451   -0.402101
     25          6           0       -3.782224    1.286374   -0.471190
     26          6           0       -3.634756    5.024333   -0.257041
     27          6           0       -5.873189    2.530694   -0.368079
     28          6           0       -6.682999    3.687341   -0.096373
     29          6           0       -3.690329   -1.192627   -0.823217
     30          6           0       -4.317373   -2.406926   -1.099727
     31          6           0       -3.261276   -3.332648   -1.125624
     32          6           0       -2.104584   -2.619713   -0.825515
     33          6           0       -5.810000   -2.583203   -1.429534
     34          6           0       -3.228699   -4.709898   -1.389530
     35          6           0       -4.336776   -5.582505   -1.634112
     36          6           0        0.363299   -2.618334   -0.389102
     37          6           0        1.508738   -3.332848   -0.095432
     38          6           0        2.477149   -2.392126    0.258996
     39          6           0        1.843613   -1.145145    0.113002
     40          6           0        1.652398   -4.845967   -0.078606
     41          6           0        3.909131   -2.713905    0.698133
     42          6           0        4.925449   -2.555662   -0.452171
     43          6           0        6.419729   -2.708444   -0.158804
     44          8           0        7.237300   -2.264535   -0.965732
     45          8           0        6.791391   -3.252007    0.877871
     46          7           0        0.436864    1.551236    0.198109
     47          7           0       -2.475838    1.479000   -0.253777
     48          7           0       -2.360889   -1.328241   -0.671804
     49          7           0        0.560528   -1.309324   -0.270960
     50          8           0       -0.577338    0.936398   -2.174946
     51          1           0        7.405909    4.382013   -0.861395
     52          1           0        7.425816   -2.748125   -1.773323
     53          1           0        4.672513   -3.275338   -1.202497
     54          1           0        4.781025   -1.582898   -0.873801
     55          1           0        4.439267    1.904931   -1.540854
     56          1           0        4.310821    3.639352   -1.576082
     57          1           0        4.133542    3.700619    0.825888
     58          1           0        4.346108    1.981810    0.907490
     59          1           0        3.943701   -3.722249    1.054431
     60          1           0        4.183148   -2.054928    1.495355
     61          1           0        3.458602    0.143905    0.564471
     62          1           0        1.390370    5.442053   -0.903801
     63          1           0        0.926395    5.519933    0.778973
     64          1           0        2.607561    5.325361    0.344356
     65          1           0       -1.029436    4.474438   -0.398283
     66          1           0       -4.018423    5.389949   -1.186570
     67          1           0       -4.300029    5.297042    0.535386
     68          1           0       -2.670623    5.451749   -0.076307
     69          1           0       -7.500011    3.932171   -0.742477
     70          1           0       -6.468611    4.303245    0.751919
     71          1           0       -6.390854    1.614868   -0.563490
     72          1           0       -5.952664   -3.503786   -1.955912
     73          1           0       -6.376283   -2.599909   -0.521820
     74          1           0       -6.138973   -1.768491   -2.040206
     75          1           0       -4.341206   -6.569998   -1.222119
     76          1           0       -5.160618   -5.247272   -2.228926
     77          1           0       -2.259363   -5.162497   -1.410543
     78          1           0       -0.816244   -4.253434   -0.839079
     79          1           0        2.313867   -5.150177   -0.862708
     80          1           0        2.051114   -5.155915    0.864716
     81          1           0        0.693341   -5.296954   -0.225983
     82          1           0       -0.820231    0.614317   -3.046076
     83          1           0       -1.283641    1.486824   -1.828873
     84          1           0       -0.489051   -2.269519    2.190450
     85          1           0       -1.977917    1.646658    1.978259
     86          1           0       -0.819676   -2.722833    4.788155
     87          1           0       -1.149137   -1.323454    5.781261
     88          1           0       -2.470426   -2.248908    5.109848
     89         26           0       -0.944616    0.095735   -0.246035
     90          1           0       -5.412085    0.022741   -0.870041
 ---------------------------------------------------------------------

 SCF Done:  E(UPBE1PBE) =  -3438.60036818     A.U. after   76 cycles

 Alpha virt. eigenvalues --    0.72149   0.72241   0.72570   0.72783   0.73260
 Alpha virt. eigenvalues --    0.73354   0.73611   0.74144   0.74241   0.74465
 Alpha virt. eigenvalues --    0.74691   0.75088   0.75154   0.76012   0.76200

  Beta  occ. eigenvalues -- -256.32217 -30.04792 -25.88606 -25.87821 -25.87589
  Beta  occ. eigenvalues --  -19.25724 -19.24369 -19.21430 -19.17268 -19.16983
  Beta  occ. eigenvalues --  -14.45068 -14.37563 -14.36432 -14.35425 -14.34817
  Beta  occ. eigenvalues --  -14.34606 -10.34626 -10.33999 -10.27483 -10.26024
  Beta  occ. eigenvalues --  -10.24889 -10.24329 -10.23820 -10.23802 -10.23743
  Beta  occ. eigenvalues --  -10.23736 -10.23732 -10.23327 -10.23324 -10.23290
  Beta  occ. eigenvalues --  -10.23254 -10.23096 -10.22742 -10.22718 -10.22611
  Beta  occ. eigenvalues --  -10.22345 -10.22318 -10.22247 -10.22104 -10.22095
  Beta  occ. eigenvalues --  -10.22052 -10.21963 -10.21793 -10.21706 -10.21668
  Beta  occ. eigenvalues --  -10.21645 -10.21636 -10.21543 -10.21344 -10.21330
  Beta  occ. eigenvalues --  -10.21312 -10.21249 -10.21225 -10.20968  -3.35879
  Beta  occ. eigenvalues --   -2.10773  -2.10669  -2.10551  -1.17515  -1.16654
  Beta  occ. eigenvalues --   -1.08930  -1.05673  -1.02691  -1.02545  -1.00263
  Beta  occ. eigenvalues --   -0.99103  -0.98588  -0.97848  -0.92668  -0.84350
  Beta  occ. eigenvalues --   -0.83477  -0.83435  -0.82558  -0.82224  -0.81601
  Beta  occ. eigenvalues --   -0.81575  -0.81118  -0.79179  -0.78416  -0.77112
  Beta  occ. eigenvalues --   -0.75871  -0.75232  -0.73909  -0.73210  -0.72536
  Beta  occ. eigenvalues --   -0.72031  -0.71627  -0.70065  -0.69717  -0.69228
  Beta  occ. eigenvalues --   -0.66813  -0.66523  -0.66328  -0.65439  -0.65124
  Beta  occ. eigenvalues --   -0.63412  -0.63009  -0.62015  -0.59056  -0.58578
  Beta  occ. eigenvalues --   -0.57943  -0.57455  -0.56375  -0.55283  -0.54896
  Beta  occ. eigenvalues --   -0.53593  -0.52885  -0.52433  -0.52256  -0.52089
  Beta  occ. eigenvalues --   -0.51487  -0.50887  -0.50424  -0.49931  -0.49459
  Beta  occ. eigenvalues --   -0.49328  -0.48692  -0.48599  -0.48285  -0.46722
  Beta  occ. eigenvalues --   -0.46477  -0.46287  -0.45909  -0.45680  -0.45063
  Beta  occ. eigenvalues --   -0.44939  -0.44789  -0.44418  -0.44240  -0.44095
  Beta  occ. eigenvalues --   -0.43824  -0.43714  -0.43576  -0.43416  -0.43118
  Beta  occ. eigenvalues --   -0.42797  -0.42703  -0.42472  -0.42338  -0.41835
  Beta  occ. eigenvalues --   -0.41609  -0.41577  -0.41233  -0.40840  -0.40490
  Beta  occ. eigenvalues --   -0.40050  -0.39599  -0.39143  -0.38780  -0.38690
  Beta  occ. eigenvalues --   -0.38477  -0.38271  -0.37912  -0.37719  -0.37568
  Beta  occ. eigenvalues --   -0.36919  -0.36612  -0.36410  -0.36231  -0.36085
  Beta  occ. eigenvalues --   -0.35383  -0.35069  -0.34742  -0.33812  -0.33281
  Beta  occ. eigenvalues --   -0.33102  -0.32847  -0.32736  -0.32563  -0.31291
  Beta  occ. eigenvalues --   -0.30542  -0.30379  -0.29985  -0.29409  -0.27891
  Beta  occ. eigenvalues --   -0.27338  -0.27224  -0.26880  -0.24361  -0.23366
  Beta  occ. eigenvalues --   -0.23096  -0.21591  -0.20659  -0.19123  -0.18717
  Beta  occ. eigenvalues --   -0.15208
  Beta virt. eigenvalues --   -0.08321  -0.07822  -0.05014  -0.03048  -0.00538
  Beta virt. eigenvalues --   -0.00282  -0.00029   0.00183   0.00993   0.01981
  Beta virt. eigenvalues --    0.02719   0.03372   0.03685   0.04056   0.04575

 Mulliken charges and spin densities:
               1          2
     1  C   -0.375892   0.001186
     2  C    0.152526   0.005512
     3  N   -0.196674   0.001006
     4  C   -0.199395   0.004493
     5  C    0.031215   0.007300
     6  N   -0.023281   0.028809
     7  H    0.213675   0.001544
     8  C   -0.495985  -0.014868
     9  C   -0.507512  -0.108771
    10  C   -0.489985   0.047605
    11  C   -0.474739  -0.032356
    12  C    0.316836  -0.022383
    13  C    0.099580   0.044655
    14  C   -0.141009  -0.042725
    15  C    0.303060   0.046538
    16  C   -0.407397   0.004033
    17  C   -0.469206  -0.002915
    18  C   -0.102721   0.001778
    19  C    0.240411   0.000199
    20  O   -0.334471   0.000010
    21  O   -0.348846   0.000172
    22  C    0.324380   0.064720
    23  C   -0.164851  -0.196275
    24  C    0.015801   0.158497
    25  C    0.292380  -0.056760
    26  C   -0.333231   0.009779
    27  C   -0.124520  -0.382645
    28  C   -0.334114   0.516918
    29  C    0.299770  -0.047039
    30  C   -0.161581   0.102806
    31  C   -0.004246  -0.090425
    32  C    0.290797   0.021353
    33  C   -0.358818  -0.004544
    34  C   -0.078654   0.178797
    35  C   -0.340361  -0.251931
    36  C    0.286984   0.014023
    37  C   -0.101351  -0.027777
    38  C    0.003193   0.025347
    39  C    0.244733  -0.019641
    40  C   -0.392287   0.002848
    41  C   -0.257963  -0.000796
    42  C   -0.297208   0.000718
    43  C    0.286066   0.000199
    44  O   -0.319363   0.000041
    45  O   -0.328416   0.000001
    46  N   -0.103485   0.007049
    47  N   -0.298319   0.003419
    48  N   -0.092748   0.041121
    49  N   -0.120789   0.032460
    50  O   -0.505898   0.018890
    51  H    0.353895  -0.000001
    52  H    0.349013  -0.000000
    53  H    0.126082   0.000019
    54  H    0.148003   0.000084
    55  H    0.133868  -0.000119
    56  H    0.108811  -0.000038
    57  H    0.128307   0.000551
    58  H    0.138912   0.000589
    59  H    0.113418   0.000418
    60  H    0.128599   0.000190
    61  H    0.122861   0.000051
    62  H    0.138279  -0.001907
    63  H    0.136385  -0.001579
    64  H    0.128076   0.000069
    65  H    0.113076   0.004865
    66  H    0.139265  -0.006431
    67  H    0.125687  -0.004304
    68  H    0.119734   0.000380
    69  H    0.140963  -0.029060
    70  H    0.133607  -0.028546
    71  H    0.114655   0.027087
    72  H    0.110547   0.000499
    73  H    0.141975   0.003785
    74  H    0.131989   0.001666
    75  H    0.133614   0.013092
    76  H    0.128086   0.013110
    77  H    0.114200  -0.010193
    78  H    0.051558   0.000095
    79  H    0.135315  -0.001120
    80  H    0.138439  -0.000652
    81  H    0.118954  -0.000176
    82  H    0.325168   0.006717
    83  H    0.323397   0.001224
    84  H    0.144022   0.001870
    85  H    0.178353   0.003207
    86  H    0.148941   0.000018
    87  H    0.131824   0.000187
    88  H    0.141285   0.000189
    89  Fe   0.042115   3.914329
    90  H    0.102630  -0.002141
 Sum of Mulliken charges =  -0.00000   4.00000

 Dipole moment (field-independent basis, Debye):
    X=             -3.4680    Y=              3.9133    Z=              0.5227  Tot=              5.2549
 Quadrupole moment (field-independent basis, Debye-Ang):
   XX=           -316.0734   YY=           -274.6457   ZZ=           -271.0094
   XY=             14.9459   XZ=            -32.0754   YZ=              4.5523

 Summary of Natural Population Analysis:

                                       Natural Population
                Natural  -----------------------------------------------
    Atom  No    Charge         Core      Valence    Rydberg      Total
 -----------------------------------------------------------------------
      C    1   -0.31682      0.99970     2.31416    0.00296     3.31682
      C    2    0.05195      0.99958     1.93854    0.00994     2.94805
      N    3   -0.22561      0.99964     2.71554    0.01043     3.72561
      C    4   -0.02622      0.99950     2.01596    0.01077     3.02622
      C    5    0.09388      0.99965     1.89483    0.01164     2.90612
      N    6   -0.17158      0.99968     2.64921    0.02269     3.67158
      H    7    0.20360      0.00000     0.29562    0.00078     0.29640
      C    8   -0.08893      0.99955     2.08153    0.00786     3.08893
      C    9   -0.16688      0.99955     2.15905    0.00828     3.16688
      C   10   -0.08105      0.99954     2.07390    0.00761     3.08105
      C   11   -0.10866      0.99952     2.10115    0.00798     3.10866
      C   12    0.04933      0.99946     1.94084    0.01038     2.95067
      C   13    0.00912      0.99942     1.98211    0.00936     2.99088
      C   14   -0.03608      0.99943     2.02795    0.00870     3.03608
      C   15    0.08926      0.99948     1.90078    0.01048     2.91074
      C   16   -0.31716      0.99970     2.31391    0.00355     3.31716
      C   17   -0.20929      0.99966     2.20320    0.00643     3.20929
      C   18   -0.24418      0.99962     2.23623    0.00833     3.24418
      C   19    0.38266      0.99977     1.59822    0.01935     2.61734
      O   20   -0.33645      0.99979     3.32214    0.01452     4.33645
      O   21   -0.29524      0.99989     3.28265    0.01270     4.29524
      C   22    0.07601      0.99950     1.91371    0.01078     2.92399
      C   23   -0.08519      0.99946     2.07659    0.00914     3.08519
      C   24   -0.00466      0.99943     1.99469    0.01054     3.00466
      C   25    0.04892      0.99950     1.94017    0.01141     2.95108
      C   26   -0.31230      0.99970     2.30852    0.00409     3.31230
      C   27   -0.24102      0.99964     2.23135    0.01003     3.24102
      C   28    0.03479      0.99973     1.95958    0.00589     2.96521
      C   29    0.03991      0.99949     1.95053    0.01007     2.96009
      C   30    0.05459      0.99944     1.93748    0.00850     2.94541
      C   31   -0.09916      0.99945     2.08939    0.01031     3.09916
      C   32    0.09217      0.99950     1.89695    0.01138     2.90783
      C   33   -0.32046      0.99970     2.31705    0.00371     3.32046
      C   34   -0.01954      0.99963     2.01100    0.00890     3.01954
      C   35   -0.31720      0.99973     2.31038    0.00710     3.31720
      C   36    0.06520      0.99945     1.92377    0.01159     2.93480
      C   37   -0.02801      0.99943     2.01986    0.00871     3.02801
      C   38   -0.00222      0.99944     1.99366    0.00912     3.00222
      C   39    0.04853      0.99950     1.94180    0.01017     2.95147
      C   40   -0.31651      0.99970     2.31300    0.00382     3.31651
      C   41   -0.20981      0.99967     2.20253    0.00761     3.20981
      C   42   -0.25567      0.99962     2.24764    0.00842     3.25567
      C   43    0.38581      0.99976     1.59588    0.01855     2.61419
      O   44   -0.33558      0.99978     3.31994    0.01586     4.33558
      O   45   -0.28325      0.99988     3.27097    0.01240     4.28325
      N   46   -0.20800      0.99968     2.68709    0.02123     3.70800
      N   47   -0.23655      0.99970     2.71669    0.02016     3.73655
      N   48   -0.18399      0.99969     2.66376    0.02054     3.68399
      N   49   -0.18828      0.99969     2.66624    0.02235     3.68828
      O   50   -0.40258      0.99992     3.39286    0.00980     4.40258
      H   51    0.25853      0.00000     0.24015    0.00132     0.24147
      H   52    0.25630      0.00000     0.24252    0.00118     0.24370
      H   53    0.11124      0.00000     0.38801    0.00075     0.38876
      H   54    0.11314      0.00000     0.38609    0.00077     0.38686
      H   55    0.11839      0.00000     0.38090    0.00072     0.38161
      H   56    0.10999      0.00000     0.38925    0.00075     0.39001
      H   57    0.10813      0.00000     0.39069    0.00118     0.39187
      H   58    0.10749      0.00000     0.39145    0.00106     0.39251
      H   59    0.11291      0.00000     0.38629    0.00080     0.38709
      H   60    0.11218      0.00000     0.38703    0.00078     0.38782
      H   61    0.10363      0.00000     0.39532    0.00105     0.39637
      H   62    0.10845      0.00000     0.39068    0.00087     0.39155
      H   63    0.10875      0.00000     0.39042    0.00084     0.39125
      H   64    0.10885      0.00000     0.39049    0.00066     0.39115
      H   65    0.10586      0.00000     0.39279    0.00135     0.39414
      H   66    0.11054      0.00000     0.38846    0.00101     0.38946
      H   67    0.10913      0.00000     0.39009    0.00078     0.39087
      H   68    0.10771      0.00000     0.39163    0.00066     0.39229
      H   69    0.08756      0.00000     0.41156    0.00088     0.41244
      H   70    0.08391      0.00000     0.41509    0.00100     0.41609
      H   71    0.11172      0.00000     0.38755    0.00073     0.38828
      H   72    0.11201      0.00000     0.38721    0.00078     0.38799
      H   73    0.11357      0.00000     0.38562    0.00081     0.38643
      H   74    0.11078      0.00000     0.38853    0.00068     0.38922
      H   75    0.10320      0.00000     0.39606    0.00074     0.39680
      H   76    0.09652      0.00000     0.40259    0.00089     0.40348
      H   77    0.09494      0.00000     0.40428    0.00078     0.40506
      H   78    0.10036      0.00000     0.39781    0.00184     0.39964
      H   79    0.10863      0.00000     0.39054    0.00083     0.39137
      H   80    0.11042      0.00000     0.38874    0.00084     0.38958
      H   81    0.10735      0.00000     0.39202    0.00063     0.39265
      H   82    0.24580      0.00000     0.25255    0.00165     0.25420
      H   83    0.25173      0.00000     0.24576    0.00252     0.24827
      H   84    0.11361      0.00000     0.38564    0.00075     0.38639
      H   85    0.11818      0.00000     0.38079    0.00103     0.38182
      H   86    0.11776      0.00000     0.38179    0.00045     0.38224
      H   87    0.10849      0.00000     0.39082    0.00069     0.39151
      H   88    0.10996      0.00000     0.38933    0.00071     0.39004
     Fe   89    2.16849      8.99562     1.80850    0.02739    10.83151
      H   90    0.10222      0.00000     0.39626    0.00152     0.39778
 =======================================================================
   * Total *    2.00000     57.97656   127.43186    0.59158   186.00000

 Normal termination of Gaussian 16 at Fri Sep  9 14:05:24 2022.
