 Gaussian 16, Revision A.03,
 Gaussian 16:  ES64L-G16RevA.03 25-Dec-2016

 ---------------------------------------------------------------------
 # polar def2tzvp empiricaldispersion=gd3bj int=grid=ultrafine pbe1pbe
 ---------------------------------------------------------------------

 ---------
 1cmq_II_S
 ---------
 Symbolic Z-matrix:
 Charge =  0 Multiplicity = 1

                         Standard orientation:
 ---------------------------------------------------------------------
 Center     Atomic      Atomic             Coordinates (Angstroms)
 Number     Number       Type             X           Y           Z
 ---------------------------------------------------------------------
      1          6           0       -1.476983   -1.891552    4.935873
      2          6           0       -1.465226   -1.011614    3.699858
      3          7           0       -1.921887    0.224389    3.558864
      4          6           0       -0.944368   -1.340893    2.464748
      5          6           0       -1.715160    0.679865    2.353986
      6          7           0       -1.116079   -0.293146    1.691465
      7          1           0       -2.428962    0.704496    4.231589
      8          6           0        2.413925    0.127313    0.333656
      9          6           0       -1.028379    3.417554   -0.231266
     10          6           0       -4.351611    0.040369   -0.728680
     11          6           0       -0.846614   -3.194579   -0.688065
     12          6           0        1.769904    1.371882    0.285366
     13          6           0        2.426948    2.587812    0.251575
     14          6           0        1.432536    3.559477    0.102105
     15          6           0        0.241079    2.856337    0.009276
     16          6           0        1.601841    5.074697    0.078660
     17          6           0        3.937469    2.777908    0.320853
     18          6           0        4.664881    2.804793   -1.007705
     19          6           0        6.179501    2.919952   -0.860439
     20          8           0        6.691792    3.944651   -0.391978
     21          8           0        6.893830    1.980354   -1.213328
     22          6           0       -2.290910    2.809805   -0.286389
     23          6           0       -3.513302    3.498102   -0.319525
     24          6           0       -4.480050    2.484451   -0.402101
     25          6           0       -3.782224    1.286374   -0.471190
     26          6           0       -3.634756    5.024333   -0.257041
     27          6           0       -5.873189    2.530694   -0.368079
     28          6           0       -6.682999    3.687341   -0.096373
     29          6           0       -3.690329   -1.192627   -0.823217
     30          6           0       -4.317373   -2.406926   -1.099727
     31          6           0       -3.261276   -3.332648   -1.125624
     32          6           0       -2.104584   -2.619713   -0.825515
     33          6           0       -5.810000   -2.583203   -1.429534
     34          6           0       -3.228699   -4.709898   -1.389530
     35          6           0       -4.336776   -5.582505   -1.634112
     36          6           0        0.363299   -2.618334   -0.389102
     37          6           0        1.508738   -3.332848   -0.095432
     38          6           0        2.477149   -2.392126    0.258996
     39          6           0        1.843613   -1.145145    0.113002
     40          6           0        1.652398   -4.845967   -0.078606
     41          6           0        3.909131   -2.713905    0.698133
     42          6           0        4.925449   -2.555662   -0.452171
     43          6           0        6.419729   -2.708444   -0.158804
     44          8           0        7.237300   -2.264535   -0.965732
     45          8           0        6.791391   -3.252007    0.877871
     46          7           0        0.436864    1.551236    0.198109
     47          7           0       -2.475838    1.479000   -0.253777
     48          7           0       -2.360889   -1.328241   -0.671804
     49          7           0        0.560528   -1.309324   -0.270960
     50          8           0       -0.577338    0.936398   -2.174946
     51          1           0        7.405909    4.382013   -0.861395
     52          1           0        7.425816   -2.748125   -1.773323
     53          1           0        4.672513   -3.275338   -1.202497
     54          1           0        4.781025   -1.582898   -0.873801
     55          1           0        4.439267    1.904931   -1.540854
     56          1           0        4.310821    3.639352   -1.576082
     57          1           0        4.133542    3.700619    0.825888
     58          1           0        4.346108    1.981810    0.907490
     59          1           0        3.943701   -3.722249    1.054431
     60          1           0        4.183148   -2.054928    1.495355
     61          1           0        3.458602    0.143905    0.564471
     62          1           0        1.390370    5.442053   -0.903801
     63          1           0        0.926395    5.519933    0.778973
     64          1           0        2.607561    5.325361    0.344356
     65          1           0       -1.029436    4.474438   -0.398283
     66          1           0       -4.018423    5.389949   -1.186570
     67          1           0       -4.300029    5.297042    0.535386
     68          1           0       -2.670623    5.451749   -0.076307
     69          1           0       -7.500011    3.932171   -0.742477
     70          1           0       -6.468611    4.303245    0.751919
     71          1           0       -6.390854    1.614868   -0.563490
     72          1           0       -5.952664   -3.503786   -1.955912
     73          1           0       -6.376283   -2.599909   -0.521820
     74          1           0       -6.138973   -1.768491   -2.040206
     75          1           0       -4.341206   -6.569998   -1.222119
     76          1           0       -5.160618   -5.247272   -2.228926
     77          1           0       -2.259363   -5.162497   -1.410543
     78          1           0       -0.816244   -4.253434   -0.839079
     79          1           0        2.313867   -5.150177   -0.862708
     80          1           0        2.051114   -5.155915    0.864716
     81          1           0        0.693341   -5.296954   -0.225983
     82          1           0       -0.820231    0.614317   -3.046076
     83          1           0       -1.283641    1.486824   -1.828873
     84          1           0       -0.489051   -2.269519    2.190450
     85          1           0       -1.977917    1.646658    1.978259
     86          1           0       -0.819676   -2.722833    4.788155
     87          1           0       -1.149137   -1.323454    5.781261
     88          1           0       -2.470426   -2.248908    5.109848
     89         26           0       -0.944616    0.095735   -0.246035
     90          1           0       -5.412085    0.022741   -0.870041
 ---------------------------------------------------------------------

 SCF Done:  E(RPBE1PBE) =  -3438.59990285     A.U. after   25 cycles

 The electronic state is 1-A.
 Alpha  occ. eigenvalues -- -256.30962 -30.07548 -25.90332 -25.90089 -25.89996
 Alpha  occ. eigenvalues --  -19.25759 -19.24386 -19.21939 -19.17304 -19.17002
 Alpha  occ. eigenvalues --  -14.44976 -14.38917 -14.37322 -14.36361 -14.35774
 Alpha  occ. eigenvalues --  -14.35640 -10.34663 -10.34015 -10.27291 -10.26007
 Alpha  occ. eigenvalues --  -10.24838 -10.24418 -10.23960 -10.23931 -10.23789
 Alpha  occ. eigenvalues --  -10.23574 -10.23547 -10.23496 -10.23340 -10.23335
 Alpha  occ. eigenvalues --  -10.23318 -10.23009 -10.22972 -10.22785 -10.22672
 Alpha  occ. eigenvalues --  -10.22402 -10.22356 -10.22308 -10.22220 -10.22085
 Alpha  occ. eigenvalues --  -10.22083 -10.21997 -10.21992 -10.21928 -10.21751
 Alpha  occ. eigenvalues --  -10.21657 -10.21652 -10.21549 -10.21533 -10.21510
 Alpha  occ. eigenvalues --  -10.21463 -10.21407 -10.21269 -10.21105  -3.42398
 Alpha  occ. eigenvalues --   -2.18406  -2.17753  -2.17646  -1.17550  -1.16672
 Alpha  occ. eigenvalues --   -1.08984  -1.05808  -1.02727  -1.02564  -1.00339
 Alpha  occ. eigenvalues --   -0.99215  -0.98761  -0.98033  -0.92838  -0.84358
 Alpha  occ. eigenvalues --   -0.83533  -0.83342  -0.82617  -0.82307  -0.81596
 Alpha  occ. eigenvalues --   -0.81583  -0.81193  -0.79267  -0.78460  -0.77093
 Alpha  occ. eigenvalues --   -0.75886  -0.75285  -0.73958  -0.73199  -0.72614
 Alpha  occ. eigenvalues --   -0.72120  -0.71591  -0.70111  -0.69790  -0.69270
 Alpha  occ. eigenvalues --   -0.66892  -0.66573  -0.66395  -0.65498  -0.65162
 Alpha  occ. eigenvalues --   -0.63393  -0.63083  -0.62034  -0.59118  -0.58666
 Alpha  occ. eigenvalues --   -0.57960  -0.57390  -0.56442  -0.55292  -0.54913
 Alpha  occ. eigenvalues --   -0.53583  -0.52929  -0.52495  -0.52302  -0.52129
 Alpha  occ. eigenvalues --   -0.51543  -0.50928  -0.50446  -0.49966  -0.49487
 Alpha  occ. eigenvalues --   -0.49373  -0.48706  -0.48605  -0.48345  -0.46744
 Alpha  occ. eigenvalues --   -0.46376  -0.46283  -0.45955  -0.45710  -0.45143
 Alpha  occ. eigenvalues --   -0.44988  -0.44798  -0.44386  -0.44262  -0.44137
 Alpha  occ. eigenvalues --   -0.43855  -0.43729  -0.43572  -0.43424  -0.43155
 Alpha  occ. eigenvalues --   -0.42779  -0.42776  -0.42553  -0.42382  -0.41852
 Alpha  occ. eigenvalues --   -0.41667  -0.41574  -0.41297  -0.40892  -0.40553
 Alpha  occ. eigenvalues --   -0.40139  -0.39652  -0.39182  -0.38821  -0.38773
 Alpha  occ. eigenvalues --   -0.38526  -0.38274  -0.37968  -0.37787  -0.37601
 Alpha  occ. eigenvalues --   -0.36915  -0.36741  -0.36451  -0.36324  -0.36136
 Alpha  occ. eigenvalues --   -0.35457  -0.35160  -0.34830  -0.33834  -0.33433
 Alpha  occ. eigenvalues --   -0.33345  -0.32923  -0.32779  -0.32601  -0.31325
 Alpha  occ. eigenvalues --   -0.30391  -0.30290  -0.29969  -0.29412  -0.27753
 Alpha  occ. eigenvalues --   -0.27411  -0.27315  -0.26900  -0.24670  -0.23901
 Alpha  occ. eigenvalues --   -0.23291  -0.21753  -0.20885  -0.20511  -0.19396
 Alpha  occ. eigenvalues --   -0.18930  -0.18694  -0.18325
 Alpha virt. eigenvalues --   -0.08619  -0.08173  -0.04879  -0.03033  -0.00436
 Alpha virt. eigenvalues --   -0.00050   0.00531   0.01334   0.02253   0.03223
 Alpha virt. eigenvalues --    0.03511   0.03923   0.04147   0.04513   0.04620

 Mulliken charges:
               1
     1  C   -0.375888
     2  C    0.153447
     3  N   -0.197093
     4  C   -0.202759
     5  C    0.024349
     6  N    0.015885
     7  H    0.215042
     8  C   -0.496986
     9  C   -0.484804
    10  C   -0.477343
    11  C   -0.451863
    12  C    0.308619
    13  C    0.097458
    14  C   -0.141079
    15  C    0.288022
    16  C   -0.406463
    17  C   -0.468659
    18  C   -0.102698
    19  C    0.240423
    20  O   -0.334493
    21  O   -0.348685
    22  C    0.310728
    23  C   -0.164772
    24  C    0.018333
    25  C    0.275562
    26  C   -0.330046
    27  C   -0.129016
    28  C   -0.351909
    29  C    0.289163
    30  C   -0.165224
    31  C   -0.002592
    32  C    0.278760
    33  C   -0.358841
    34  C   -0.079680
    35  C   -0.339624
    36  C    0.271781
    37  C   -0.097858
    38  C    0.000589
    39  C    0.236193
    40  C   -0.391739
    41  C   -0.258187
    42  C   -0.296878
    43  C    0.286010
    44  O   -0.319373
    45  O   -0.328458
    46  N   -0.042308
    47  N   -0.241306
    48  N   -0.030963
    49  N   -0.063865
    50  O   -0.498830
    51  H    0.353963
    52  H    0.348996
    53  H    0.125793
    54  H    0.147940
    55  H    0.134066
    56  H    0.108596
    57  H    0.128508
    58  H    0.138982
    59  H    0.113289
    60  H    0.128595
    61  H    0.123006
    62  H    0.139034
    63  H    0.137224
    64  H    0.128940
    65  H    0.114058
    66  H    0.139156
    67  H    0.127426
    68  H    0.119015
    69  H    0.140926
    70  H    0.133178
    71  H    0.114576
    72  H    0.110460
    73  H    0.142156
    74  H    0.132249
    75  H    0.134466
    76  H    0.128964
    77  H    0.114766
    78  H    0.052002
    79  H    0.136110
    80  H    0.139381
    81  H    0.119172
    82  H    0.328397
    83  H    0.331481
    84  H    0.144760
    85  H    0.176862
    86  H    0.148680
    87  H    0.132008
    88  H    0.141451
    89  Fe  -0.192823
    90  H    0.104111
 Sum of Mulliken charges =  -0.00000

 Dipole moment (field-independent basis, Debye):
    X=             -3.0771    Y=              3.7139    Z=              0.4405  Tot=              4.8431
 Quadrupole moment (field-independent basis, Debye-Ang):
   XX=           -317.7094   YY=           -272.4242   ZZ=           -269.7947
   XY=             16.8772   XZ=            -31.8679   YZ=              4.5390

  Exact polarizability: 881.086 -19.121 815.362  41.862  36.624 357.727
 Approx polarizability:1536.878 -52.0951525.061 106.055  88.830 581.452

 Normal termination of Gaussian 16 at Thu Sep  1 13:58:39 2022.
