 Gaussian 16, Revision A.03,
 Gaussian 16:  ES64L-G16RevA.03 25-Dec-2016

 ----------------------------------------------------------------------
 # PBE1PBE/def2TZVP empiricaldispersion=GD3BJ scf=maxcycle=999 geom=che
 ck pop=nbo
 ----------------------------------------------------------------------

 ----------
 1cmq_III_D
 ----------
 Structure from the checkpoint file:  "1cmq_III_D.chk"
 Charge =  1 Multiplicity = 2

                         Standard orientation:
 ---------------------------------------------------------------------
 Center     Atomic      Atomic             Coordinates (Angstroms)
 Number     Number       Type             X           Y           Z
 ---------------------------------------------------------------------
      1          6           0       -1.476983   -1.891552    4.935873
      2          6           0       -1.465226   -1.011614    3.699858
      3          7           0       -1.921887    0.224389    3.558864
      4          6           0       -0.944368   -1.340893    2.464748
      5          6           0       -1.715160    0.679865    2.353986
      6          7           0       -1.116079   -0.293146    1.691465
      7          1           0       -2.428962    0.704496    4.231589
      8          6           0        2.413925    0.127313    0.333656
      9          6           0       -1.028379    3.417554   -0.231266
     10          6           0       -4.351611    0.040369   -0.728680
     11          6           0       -0.846614   -3.194579   -0.688065
     12          6           0        1.769904    1.371882    0.285366
     13          6           0        2.426948    2.587812    0.251575
     14          6           0        1.432536    3.559477    0.102105
     15          6           0        0.241079    2.856337    0.009276
     16          6           0        1.601841    5.074697    0.078660
     17          6           0        3.937469    2.777908    0.320853
     18          6           0        4.664881    2.804793   -1.007705
     19          6           0        6.179501    2.919952   -0.860439
     20          8           0        6.691792    3.944651   -0.391978
     21          8           0        6.893830    1.980354   -1.213328
     22          6           0       -2.290910    2.809805   -0.286389
     23          6           0       -3.513302    3.498102   -0.319525
     24          6           0       -4.480050    2.484451   -0.402101
     25          6           0       -3.782224    1.286374   -0.471190
     26          6           0       -3.634756    5.024333   -0.257041
     27          6           0       -5.873189    2.530694   -0.368079
     28          6           0       -6.682999    3.687341   -0.096373
     29          6           0       -3.690329   -1.192627   -0.823217
     30          6           0       -4.317373   -2.406926   -1.099727
     31          6           0       -3.261276   -3.332648   -1.125624
     32          6           0       -2.104584   -2.619713   -0.825515
     33          6           0       -5.810000   -2.583203   -1.429534
     34          6           0       -3.228699   -4.709898   -1.389530
     35          6           0       -4.336776   -5.582505   -1.634112
     36          6           0        0.363299   -2.618334   -0.389102
     37          6           0        1.508738   -3.332848   -0.095432
     38          6           0        2.477149   -2.392126    0.258996
     39          6           0        1.843613   -1.145145    0.113002
     40          6           0        1.652398   -4.845967   -0.078606
     41          6           0        3.909131   -2.713905    0.698133
     42          6           0        4.925449   -2.555662   -0.452171
     43          6           0        6.419729   -2.708444   -0.158804
     44          8           0        7.237300   -2.264535   -0.965732
     45          8           0        6.791391   -3.252007    0.877871
     46          7           0        0.436864    1.551236    0.198109
     47          7           0       -2.475838    1.479000   -0.253777
     48          7           0       -2.360889   -1.328241   -0.671804
     49          7           0        0.560528   -1.309324   -0.270960
     50          8           0       -0.577338    0.936398   -2.174946
     51          1           0        7.405909    4.382013   -0.861395
     52          1           0        7.425816   -2.748125   -1.773323
     53          1           0        4.672513   -3.275338   -1.202497
     54          1           0        4.781025   -1.582898   -0.873801
     55          1           0        4.439267    1.904931   -1.540854
     56          1           0        4.310821    3.639352   -1.576082
     57          1           0        4.133542    3.700619    0.825888
     58          1           0        4.346108    1.981810    0.907490
     59          1           0        3.943701   -3.722249    1.054431
     60          1           0        4.183148   -2.054928    1.495355
     61          1           0        3.458602    0.143905    0.564471
     62          1           0        1.390370    5.442053   -0.903801
     63          1           0        0.926395    5.519933    0.778973
     64          1           0        2.607561    5.325361    0.344356
     65          1           0       -1.029436    4.474438   -0.398283
     66          1           0       -4.018423    5.389949   -1.186570
     67          1           0       -4.300029    5.297042    0.535386
     68          1           0       -2.670623    5.451749   -0.076307
     69          1           0       -7.500011    3.932171   -0.742477
     70          1           0       -6.468611    4.303245    0.751919
     71          1           0       -6.390854    1.614868   -0.563490
     72          1           0       -5.952664   -3.503786   -1.955912
     73          1           0       -6.376283   -2.599909   -0.521820
     74          1           0       -6.138973   -1.768491   -2.040206
     75          1           0       -4.341206   -6.569998   -1.222119
     76          1           0       -5.160618   -5.247272   -2.228926
     77          1           0       -2.259363   -5.162497   -1.410543
     78          1           0       -0.816244   -4.253434   -0.839079
     79          1           0        2.313867   -5.150177   -0.862708
     80          1           0        2.051114   -5.155915    0.864716
     81          1           0        0.693341   -5.296954   -0.225983
     82          1           0       -0.820231    0.614317   -3.046076
     83          1           0       -1.283641    1.486824   -1.828873
     84          1           0       -0.489051   -2.269519    2.190450
     85          1           0       -1.977917    1.646658    1.978259
     86          1           0       -0.819676   -2.722833    4.788155
     87          1           0       -1.149137   -1.323454    5.781261
     88          1           0       -2.470426   -2.248908    5.109848
     89         26           0       -0.944616    0.095735   -0.246035
     90          1           0       -5.412085    0.022741   -0.870041
 ---------------------------------------------------------------------

 SCF Done:  E(UPBE1PBE) =  -3438.40821249     A.U. after  111 cycles

 Alpha virt. eigenvalues --    0.62907   0.63337   0.63476   0.63765   0.64298
 Alpha virt. eigenvalues --    0.64369   0.64769   0.65059   0.65284   0.65570
 Alpha virt. eigenvalues --    0.65906   0.66192   0.66572   0.66698   0.67085

  Beta  occ. eigenvalues -- -256.53046 -30.29270 -26.12392 -26.12136 -26.11368
  Beta  occ. eigenvalues --  -19.35005 -19.32400 -19.31020 -19.24230 -19.23882
  Beta  occ. eigenvalues --  -14.56384 -14.52649 -14.49759 -14.49051 -14.48451
  Beta  occ. eigenvalues --  -14.48416 -10.41738 -10.41054 -10.39592 -10.37337
  Beta  occ. eigenvalues --  -10.36209 -10.35853 -10.35429 -10.35379 -10.35280
  Beta  occ. eigenvalues --  -10.35125 -10.35052 -10.35042 -10.34486 -10.33713
  Beta  occ. eigenvalues --  -10.33210 -10.33135 -10.33064 -10.33053 -10.32891
  Beta  occ. eigenvalues --  -10.32875 -10.32626 -10.32559 -10.32514 -10.32438
  Beta  occ. eigenvalues --  -10.32380 -10.32305 -10.32285 -10.32273 -10.32113
  Beta  occ. eigenvalues --  -10.31527 -10.31494 -10.30842 -10.30811 -10.30792
  Beta  occ. eigenvalues --  -10.30565 -10.30471 -10.30345 -10.30182  -3.61734
  Beta  occ. eigenvalues --   -2.37203  -2.37132  -2.36086  -1.24256  -1.23360
  Beta  occ. eigenvalues --   -1.20893  -1.18771  -1.12088  -1.11026  -1.10587
  Beta  occ. eigenvalues --   -1.09813  -1.09598  -1.09398  -1.05137  -0.95249
  Beta  occ. eigenvalues --   -0.93997  -0.93261  -0.92957  -0.92535  -0.92493
  Beta  occ. eigenvalues --   -0.92378  -0.91940  -0.88989  -0.87946  -0.86844
  Beta  occ. eigenvalues --   -0.86285  -0.85877  -0.84032  -0.83756  -0.82206
  Beta  occ. eigenvalues --   -0.81962  -0.81545  -0.80217  -0.78350  -0.78074
  Beta  occ. eigenvalues --   -0.77688  -0.76983  -0.76783  -0.75064  -0.74081
  Beta  occ. eigenvalues --   -0.73479  -0.73191  -0.72405  -0.70734  -0.69886
  Beta  occ. eigenvalues --   -0.69673  -0.68899  -0.67009  -0.66014  -0.65513
  Beta  occ. eigenvalues --   -0.64216  -0.63484  -0.63063  -0.62782  -0.60932
  Beta  occ. eigenvalues --   -0.60810  -0.60208  -0.60148  -0.59727  -0.59329
  Beta  occ. eigenvalues --   -0.58952  -0.57779  -0.57666  -0.57491  -0.57306
  Beta  occ. eigenvalues --   -0.56883  -0.56268  -0.55944  -0.55620  -0.54958
  Beta  occ. eigenvalues --   -0.54767  -0.54460  -0.54373  -0.54286  -0.54155
  Beta  occ. eigenvalues --   -0.53932  -0.53648  -0.53461  -0.53394  -0.53300
  Beta  occ. eigenvalues --   -0.52765  -0.52706  -0.52207  -0.51698  -0.51572
  Beta  occ. eigenvalues --   -0.51418  -0.51342  -0.51248  -0.50993  -0.50569
  Beta  occ. eigenvalues --   -0.50515  -0.50114  -0.49465  -0.49277  -0.48780
  Beta  occ. eigenvalues --   -0.48756  -0.48690  -0.48289  -0.47676  -0.47528
  Beta  occ. eigenvalues --   -0.47276  -0.47168  -0.46884  -0.46817  -0.46532
  Beta  occ. eigenvalues --   -0.46005  -0.45549  -0.45166  -0.44850  -0.44061
  Beta  occ. eigenvalues --   -0.43660  -0.43068  -0.42575  -0.42290  -0.41202
  Beta  occ. eigenvalues --   -0.40917  -0.40820  -0.39980  -0.39779  -0.39695
  Beta  occ. eigenvalues --   -0.39407  -0.38200  -0.37748  -0.35695  -0.34670
  Beta  occ. eigenvalues --   -0.34045  -0.33734  -0.33294  -0.32206  -0.30385
  Beta  occ. eigenvalues --   -0.30141  -0.29167
  Beta virt. eigenvalues --   -0.20483  -0.18953  -0.18054  -0.16075  -0.14983
  Beta virt. eigenvalues --   -0.13906  -0.12946  -0.09679  -0.09137  -0.07648
  Beta virt. eigenvalues --   -0.07209  -0.06845  -0.05994  -0.05708  -0.04939

 Mulliken charges and spin densities:
               1          2
     1  C   -0.360038  -0.001216
     2  C    0.148988   0.002337
     3  N   -0.179400   0.000906
     4  C   -0.202615  -0.004536
     5  C    0.038454   0.017039
     6  N    0.045140  -0.049203
     7  H    0.235740  -0.000010
     8  C   -0.479649  -0.000044
     9  C   -0.473300   0.003380
    10  C   -0.465175  -0.014717
    11  C   -0.447006  -0.006765
    12  C    0.315655   0.000631
    13  C    0.105245   0.010004
    14  C   -0.140890   0.001454
    15  C    0.293188   0.001823
    16  C   -0.389760  -0.000927
    17  C   -0.458919  -0.000940
    18  C   -0.112735   0.000444
    19  C    0.244421  -0.000005
    20  O   -0.333323  -0.000006
    21  O   -0.339158   0.000039
    22  C    0.307074  -0.001461
    23  C   -0.169857   0.018825
    24  C    0.031354  -0.011540
    25  C    0.281833   0.010641
    26  C   -0.322259  -0.001310
    27  C   -0.142678   0.046216
    28  C   -0.296459  -0.058158
    29  C    0.297903   0.006544
    30  C   -0.164310   0.009877
    31  C    0.009263   0.008166
    32  C    0.284934   0.006938
    33  C   -0.343936  -0.000558
    34  C   -0.096898  -0.026276
    35  C   -0.288705   0.036272
    36  C    0.278238   0.008527
    37  C   -0.103706  -0.009811
    38  C    0.007809   0.010773
    39  C    0.241442  -0.001498
    40  C   -0.375251   0.000010
    41  C   -0.244574  -0.000732
    42  C   -0.299010   0.000493
    43  C    0.288765   0.000079
    44  O   -0.315822   0.000051
    45  O   -0.317476  -0.000001
    46  N   -0.029362  -0.041519
    47  N   -0.227262  -0.034505
    48  N   -0.021335  -0.046712
    49  N   -0.047815  -0.035033
    50  O   -0.481069  -0.009268
    51  H    0.364062   0.000002
    52  H    0.355462  -0.000000
    53  H    0.132883  -0.000009
    54  H    0.144126  -0.000037
    55  H    0.132570   0.000003
    56  H    0.117822  -0.000005
    57  H    0.143059   0.000209
    58  H    0.144924   0.000122
    59  H    0.125675  -0.000043
    60  H    0.135855   0.000250
    61  H    0.144689  -0.000200
    62  H    0.151424   0.000124
    63  H    0.147275   0.000117
    64  H    0.144488  -0.000057
    65  H    0.137377  -0.000135
    66  H    0.157617   0.000586
    67  H    0.139281   0.000541
    68  H    0.125235  -0.000093
    69  H    0.165227   0.003299
    70  H    0.151186   0.003234
    71  H    0.127578  -0.003115
    72  H    0.119087   0.000012
    73  H    0.157514   0.000494
    74  H    0.141709   0.000160
    75  H    0.157223  -0.001919
    76  H    0.147135  -0.001876
    77  H    0.128172   0.001454
    78  H    0.070004   0.000324
    79  H    0.153305  -0.000218
    80  H    0.154017  -0.000502
    81  H    0.123678  -0.000022
    82  H    0.353177   0.000849
    83  H    0.337883  -0.001119
    84  H    0.166462   0.000348
    85  H    0.198058  -0.000398
    86  H    0.156673  -0.000004
    87  H    0.150158   0.000054
    88  H    0.156942   0.000099
    89  Fe  -0.167445   1.152507
    90  H    0.122741   0.000244
 Sum of Mulliken charges =   1.00000   1.00000

 Dipole moment (field-independent basis, Debye):
    X=             -8.9046    Y=              3.3806    Z=              0.7266  Tot=              9.5523
 Quadrupole moment (field-independent basis, Debye-Ang):
   XX=           -244.2303   YY=           -215.5480   ZZ=           -249.2943
   XY=             16.4313   XZ=            -29.1957   YZ=              6.4012

 Summary of Natural Population Analysis:

                                       Natural Population
                Natural  -----------------------------------------------
    Atom  No    Charge         Core      Valence    Rydberg      Total
 -----------------------------------------------------------------------
      C    1   -0.31942      0.99969     2.31663    0.00309     3.31942
      C    2    0.06683      0.99959     1.92558    0.00800     2.93317
      N    3   -0.22025      0.99964     2.71038    0.01023     3.72025
      C    4   -0.03072      0.99950     2.02104    0.01019     3.03072
      C    5    0.10107      0.99966     1.88786    0.01142     2.89893
      N    6   -0.18133      0.99963     2.65869    0.02301     3.68133
      H    7    0.21072      0.00000     0.28853    0.00075     0.28928
      C    8   -0.08661      0.99955     2.07895    0.00811     3.08661
      C    9   -0.11211      0.99955     2.10466    0.00790     3.11211
      C   10   -0.10671      0.99954     2.09928    0.00789     3.10671
      C   11   -0.09467      0.99953     2.08740    0.00774     3.09467
      C   12    0.06910      0.99945     1.92113    0.01031     2.93090
      C   13    0.00416      0.99943     1.98703    0.00938     2.99584
      C   14   -0.00176      0.99943     1.99411    0.00822     3.00176
      C   15    0.07043      0.99948     1.91964    0.01046     2.92957
      C   16   -0.32028      0.99970     2.31705    0.00354     3.32028
      C   17   -0.21113      0.99965     2.20481    0.00667     3.21113
      C   18   -0.24399      0.99962     2.23602    0.00835     3.24399
      C   19    0.38113      0.99978     1.59988    0.01921     2.61887
      O   20   -0.33511      0.99979     3.32085    0.01447     4.33511
      O   21   -0.28925      0.99989     3.27667    0.01269     4.28925
      C   22    0.05074      0.99950     1.93908    0.01068     2.94926
      C   23    0.01893      0.99946     1.97281    0.00880     2.98107
      C   24   -0.05893      0.99944     2.04895    0.01054     3.05893
      C   25    0.08466      0.99950     1.90467    0.01117     2.91534
      C   26   -0.31720      0.99969     2.31369    0.00382     3.31720
      C   27   -0.07953      0.99963     2.07052    0.00939     3.07953
      C   28   -0.19550      0.99973     2.18951    0.00625     3.19550
      C   29    0.07072      0.99949     1.91944    0.01035     2.92928
      C   30    0.01723      0.99945     1.97508    0.00825     2.98277
      C   31   -0.04559      0.99945     2.03602    0.01012     3.04559
      C   32    0.08693      0.99950     1.90247    0.01110     2.91307
      C   33   -0.31860      0.99969     2.31515    0.00376     3.31860
      C   34   -0.11042      0.99964     2.10171    0.00907     3.11042
      C   35   -0.15189      0.99972     2.14630    0.00587     3.15189
      C   36    0.06412      0.99944     1.92517    0.01127     2.93588
      C   37   -0.00655      0.99944     1.99889    0.00822     3.00655
      C   38    0.00069      0.99944     1.99079    0.00908     2.99931
      C   39    0.06971      0.99950     1.92068    0.01012     2.93029
      C   40   -0.31803      0.99970     2.31460    0.00374     3.31803
      C   41   -0.21150      0.99967     2.20436    0.00747     3.21150
      C   42   -0.25439      0.99962     2.24646    0.00831     3.25439
      C   43    0.38480      0.99976     1.59702    0.01842     2.61520
      O   44   -0.33317      0.99978     3.31751    0.01589     4.33317
      O   45   -0.27739      0.99989     3.26508    0.01242     4.27739
      N   46   -0.20962      0.99963     2.68664    0.02335     3.70962
      N   47   -0.24307      0.99965     2.71863    0.02479     3.74307
      N   48   -0.21083      0.99963     2.68832    0.02288     3.71083
      N   49   -0.21158      0.99963     2.68625    0.02570     3.71158
      O   50   -0.40287      0.99992     3.39433    0.00862     4.40287
      H   51    0.26201      0.00000     0.23679    0.00119     0.23799
      H   52    0.25848      0.00000     0.24040    0.00112     0.24152
      H   53    0.11232      0.00000     0.38696    0.00072     0.38768
      H   54    0.11123      0.00000     0.38801    0.00076     0.38877
      H   55    0.11729      0.00000     0.38201    0.00070     0.38271
      H   56    0.11151      0.00000     0.38776    0.00073     0.38849
      H   57    0.11447      0.00000     0.38472    0.00080     0.38553
      H   58    0.10930      0.00000     0.38964    0.00106     0.39070
      H   59    0.11737      0.00000     0.38186    0.00077     0.38263
      H   60    0.11490      0.00000     0.38433    0.00076     0.38510
      H   61    0.11150      0.00000     0.38743    0.00107     0.38850
      H   62    0.11471      0.00000     0.38457    0.00073     0.38529
      H   63    0.11362      0.00000     0.38568    0.00070     0.38638
      H   64    0.11469      0.00000     0.38464    0.00067     0.38531
      H   65    0.11184      0.00000     0.38682    0.00134     0.38816
      H   66    0.12001      0.00000     0.37916    0.00082     0.37999
      H   67    0.11643      0.00000     0.38288    0.00069     0.38357
      H   68    0.10920      0.00000     0.39019    0.00061     0.39080
      H   69    0.10624      0.00000     0.39302    0.00074     0.39376
      H   70    0.09962      0.00000     0.39951    0.00088     0.40038
      H   71    0.10423      0.00000     0.39501    0.00076     0.39577
      H   72    0.11540      0.00000     0.38387    0.00073     0.38460
      H   73    0.11687      0.00000     0.38237    0.00076     0.38313
      H   74    0.11368      0.00000     0.38567    0.00065     0.38632
      H   75    0.10414      0.00000     0.39514    0.00072     0.39586
      H   76    0.09498      0.00000     0.40415    0.00088     0.40502
      H   77    0.10303      0.00000     0.39622    0.00074     0.39697
      H   78    0.10686      0.00000     0.39133    0.00181     0.39314
      H   79    0.11575      0.00000     0.38352    0.00073     0.38425
      H   80    0.11628      0.00000     0.38297    0.00075     0.38372
      H   81    0.10851      0.00000     0.39089    0.00060     0.39149
      H   82    0.25466      0.00000     0.24421    0.00113     0.24534
      H   83    0.25469      0.00000     0.24317    0.00213     0.24531
      H   84    0.11948      0.00000     0.37977    0.00075     0.38052
      H   85    0.12240      0.00000     0.37661    0.00099     0.37760
      H   86    0.12135      0.00000     0.37820    0.00046     0.37865
      H   87    0.11520      0.00000     0.38416    0.00063     0.38480
      H   88    0.11627      0.00000     0.38308    0.00064     0.38373
     Fe   89    0.79784      8.99597     3.18385    0.02235    12.20216
      H   90    0.10968      0.00000     0.38873    0.00159     0.39032
 =======================================================================
   * Total *    1.00000     57.97666   128.43561    0.58773   187.00000

 Normal termination of Gaussian 16 at Sat Sep 10 07:50:57 2022.
