 Gaussian 16, Revision A.03,
 Gaussian 16:  ES64L-G16RevA.03 25-Dec-2016

 ---------------------------------------------------------------------
 # polar def2tzvp empiricaldispersion=gd3bj int=grid=ultrafine pbe1pbe
 ---------------------------------------------------------------------

 ---------
 1cpo_II_S
 ---------
 Symbolic Z-matrix:
 Charge =  0 Multiplicity = 1

                         Standard orientation:
 ---------------------------------------------------------------------
 Center     Atomic      Atomic             Coordinates (Angstroms)
 Number     Number       Type             X           Y           Z
 ---------------------------------------------------------------------
      1          6           0       -0.115849   -1.148897    3.136053
      2         16           0       -1.612746   -0.207226    2.933680
      3          6           0        2.342646   -0.261906   -0.131958
      4          6           0       -1.321712   -3.437900   -0.186582
      5          6           0       -4.449186    0.212277   -0.495150
      6          6           0       -0.809233    3.428447   -0.174485
      7          6           0        1.613531   -1.453944   -0.057399
      8          6           0        2.185316   -2.782506   -0.041826
      9          6           0        1.164868   -3.659898   -0.102025
     10          6           0       -0.052567   -2.893977   -0.084100
     11          6           0        1.250531   -5.163631   -0.185227
     12          6           0        3.653789   -3.080560    0.045366
     13          6           0        4.330407   -2.787000   -1.289823
     14          6           0        5.769333   -2.392901   -1.116145
     15          8           0        6.041716   -1.178619   -0.987492
     16          8           0        6.640275   -3.291130   -1.124667
     17          6           0       -2.515407   -2.735933   -0.177394
     18          6           0       -3.831718   -3.336575   -0.249807
     19          6           0       -4.719520   -2.321114   -0.354182
     20          6           0       -3.947882   -1.078272   -0.330398
     21          6           0       -4.133960   -4.843753   -0.192977
     22          6           0       -6.065936   -2.685291   -0.455015
     23          6           0       -7.169424   -1.862086   -0.383263
     24          6           0       -3.727715    1.408606   -0.386405
     25          6           0       -4.290309    2.723905   -0.590396
     26          6           0       -3.315342    3.623795   -0.286635
     27          6           0       -2.088852    2.877896   -0.155519
     28          6           0       -5.695986    2.953308   -1.123921
     29          6           0       -3.322984    5.011859   -0.116632
     30          6           0       -4.356348    5.779888   -0.669997
     31          6           0        0.383121    2.717050   -0.124147
     32          6           0        1.706728    3.282583   -0.296643
     33          6           0        2.585143    2.251579   -0.281039
     34          6           0        1.814914    1.031950   -0.121849
     35          6           0        2.024383    4.759810   -0.503321
     36          6           0        4.093756    2.339944   -0.451643
     37          6           0        4.937776    2.239048    0.823023
     38          6           0        6.432591    2.299879    0.561247
     39          8           0        7.195852    2.503501    1.522151
     40          8           0        6.854447    2.142581   -0.597814
     41          7           0        0.238566   -1.546725    0.036221
     42          7           0       -2.629332   -1.369575   -0.065958
     43          7           0       -2.383171    1.528245   -0.093142
     44          7           0        0.473482    1.345697   -0.009137
     45         26           0       -1.093653   -0.006419    0.109102
     46          1           0       -0.167565   -1.709785    4.045795
     47          1           0       -0.001656   -1.819129    2.309827
     48          1           0        0.721494   -0.483839    3.174189
     49          1           0       -2.322685   -0.274179    4.032590
     50          1           0        6.723937   -0.902404   -0.371147
     51          1           0        4.281228   -3.661646   -1.904212
     52          1           0        3.807992   -1.990053   -1.776504
     53          1           0        3.791667   -4.112340    0.292996
     54          1           0        4.094165   -2.471597    0.807031
     55          1           0        7.590927    1.549708   -0.764243
     56          1           0        4.671119    3.044388    1.475112
     57          1           0        4.712737    1.313535    1.310550
     58          1           0        4.397477    1.553988   -1.111133
     59          1           0        4.318058    3.274288   -0.922376
     60          1           0        3.406639   -0.349579   -0.203606
     61          1           0        1.451826   -5.563721    0.786528
     62          1           0        0.322230   -5.554313   -0.546510
     63          1           0        2.038299   -5.439501   -0.854717
     64          1           0       -1.386316   -4.501683   -0.281936
     65          1           0        3.078970    4.914411   -0.409282
     66          1           0        1.705553    5.059994   -1.479609
     67          1           0        1.511494    5.341462    0.233921
     68          1           0       -0.738376    4.494490   -0.233057
     69          1           0       -6.410815    2.629920   -0.396364
     70          1           0       -5.836240    3.995198   -1.323157
     71          1           0       -5.829826    2.396197   -2.027588
     72          1           0       -5.489995    0.297818   -0.728170
     73          1           0       -3.873950   -5.223488    0.772992
     74          1           0       -5.176600   -5.005394   -0.370950
     75          1           0       -3.561572   -5.350775   -0.941443
     76          1           0       -2.539836    5.487499    0.435948
     77          1           0       -5.112880    6.194330   -0.036911
     78          1           0       -4.388813    5.951852   -1.725589
     79          1           0       -7.449704   -1.423330    0.551529
     80          1           0       -7.745627   -1.661908   -1.262364
     81          1           0       -6.262987   -3.726139   -0.605702
 ---------------------------------------------------------------------

 SCF Done:  E(RPBE1PBE) =  -3535.31017041     A.U. after   46 cycles

 The electronic state is 1-A.
 Alpha  occ. eigenvalues -- -256.35796 -89.02396 -30.12188 -25.95256 -25.94585
 Alpha  occ. eigenvalues --  -25.94540 -19.28338 -19.27708 -19.18727 -19.18712
 Alpha  occ. eigenvalues --  -14.39489 -14.39295 -14.39230 -14.39001 -10.36319
 Alpha  occ. eigenvalues --  -10.36240 -10.26840 -10.26331 -10.26264 -10.26014
 Alpha  occ. eigenvalues --  -10.26004 -10.25969 -10.25954 -10.25855 -10.24205
 Alpha  occ. eigenvalues --  -10.24191 -10.24157 -10.23766 -10.23751 -10.23626
 Alpha  occ. eigenvalues --  -10.23505 -10.23497 -10.23422 -10.23402 -10.23358
 Alpha  occ. eigenvalues --  -10.23198 -10.23191 -10.23167 -10.23156 -10.23102
 Alpha  occ. eigenvalues --  -10.23097 -10.23033 -10.22611 -10.22559 -10.22413
 Alpha  occ. eigenvalues --  -10.22166 -10.21629 -10.21390 -10.21289  -8.00518
 Alpha  occ. eigenvalues --   -5.94203  -5.93852  -5.93305  -3.47403  -2.24074
 Alpha  occ. eigenvalues --   -2.22361  -2.22314  -1.18879  -1.18760  -1.03742
 Alpha  occ. eigenvalues --   -1.03510  -0.99261  -0.98335  -0.98277  -0.97321
 Alpha  occ. eigenvalues --   -0.85741  -0.84851  -0.84810  -0.84445  -0.83766
 Alpha  occ. eigenvalues --   -0.82244  -0.81936  -0.81707  -0.80725  -0.80055
 Alpha  occ. eigenvalues --   -0.78108  -0.77017  -0.76518  -0.75238  -0.74216
 Alpha  occ. eigenvalues --   -0.72968  -0.72342  -0.71752  -0.70913  -0.70537
 Alpha  occ. eigenvalues --   -0.67935  -0.67523  -0.67091  -0.66383  -0.66354
 Alpha  occ. eigenvalues --   -0.63468  -0.62354  -0.60076  -0.59102  -0.57122
 Alpha  occ. eigenvalues --   -0.56245  -0.55595  -0.54891  -0.53935  -0.53356
 Alpha  occ. eigenvalues --   -0.53109  -0.52957  -0.52395  -0.52354  -0.52050
 Alpha  occ. eigenvalues --   -0.50506  -0.50417  -0.49978  -0.49798  -0.49128
 Alpha  occ. eigenvalues --   -0.48610  -0.47857  -0.47479  -0.47229  -0.46499
 Alpha  occ. eigenvalues --   -0.46320  -0.46017  -0.45667  -0.45339  -0.45052
 Alpha  occ. eigenvalues --   -0.44884  -0.44491  -0.44238  -0.44105  -0.43781
 Alpha  occ. eigenvalues --   -0.43543  -0.43517  -0.43070  -0.42315  -0.42129
 Alpha  occ. eigenvalues --   -0.41961  -0.41661  -0.41228  -0.41169  -0.41041
 Alpha  occ. eigenvalues --   -0.40888  -0.40569  -0.40456  -0.40080  -0.39781
 Alpha  occ. eigenvalues --   -0.39478  -0.39310  -0.38787  -0.38560  -0.38312
 Alpha  occ. eigenvalues --   -0.37863  -0.37603  -0.37363  -0.37062  -0.36696
 Alpha  occ. eigenvalues --   -0.36338  -0.34392  -0.33977  -0.33855  -0.33645
 Alpha  occ. eigenvalues --   -0.33482  -0.32522  -0.32203  -0.30567  -0.29754
 Alpha  occ. eigenvalues --   -0.29175  -0.28949  -0.28902  -0.28323  -0.27013
 Alpha  occ. eigenvalues --   -0.26308  -0.25423  -0.24684  -0.23512  -0.23238
 Alpha  occ. eigenvalues --   -0.21164  -0.20676  -0.18772  -0.17842
 Alpha virt. eigenvalues --   -0.09936  -0.09462  -0.08233  -0.06758  -0.05783
 Alpha virt. eigenvalues --   -0.02756  -0.01468  -0.00570   0.00126   0.00732
 Alpha virt. eigenvalues --    0.01955   0.02674   0.03575   0.03719   0.03921

 Mulliken charges:
               1
     1  C   -0.299000
     2  S   -0.220913
     3  C   -0.506037
     4  C   -0.510006
     5  C   -0.488303
     6  C   -0.481998
     7  C    0.280044
     8  C    0.011533
     9  C   -0.057753
    10  C    0.353615
    11  C   -0.421673
    12  C   -0.359572
    13  C   -0.159912
    14  C    0.263493
    15  O   -0.341378
    16  O   -0.367608
    17  C    0.266320
    18  C   -0.081808
    19  C    0.075813
    20  C    0.200302
    21  C   -0.350187
    22  C   -0.115089
    23  C   -0.413325
    24  C    0.314674
    25  C   -0.088085
    26  C    0.023119
    27  C    0.285896
    28  C   -0.376263
    29  C   -0.157063
    30  C   -0.394091
    31  C    0.276883
    32  C   -0.054297
    33  C    0.069645
    34  C    0.267500
    35  C   -0.395577
    36  C   -0.405638
    37  C   -0.190754
    38  C    0.226674
    39  O   -0.346118
    40  O   -0.320842
    41  N   -0.200619
    42  N   -0.112489
    43  N   -0.091320
    44  N   -0.167590
    45  Fe   0.107024
    46  H    0.147983
    47  H    0.149335
    48  H    0.141228
    49  H    0.161546
    50  H    0.340992
    51  H    0.129723
    52  H    0.151674
    53  H    0.152826
    54  H    0.134563
    55  H    0.344240
    56  H    0.140169
    57  H    0.133776
    58  H    0.135778
    59  H    0.131943
    60  H    0.160236
    61  H    0.149219
    62  H    0.130273
    63  H    0.141091
    64  H    0.110146
    65  H    0.127397
    66  H    0.149090
    67  H    0.137813
    68  H    0.120323
    69  H    0.131886
    70  H    0.153338
    71  H    0.145228
    72  H    0.167297
    73  H    0.147411
    74  H    0.117257
    75  H    0.134412
    76  H    0.137151
    77  H    0.145353
    78  H    0.153924
    79  H    0.147696
    80  H    0.142991
    81  H    0.107466
 Sum of Mulliken charges =  -0.00000

 Dipole moment (field-independent basis, Debye):
    X=             -1.9651    Y=             -1.6731    Z=              0.0967  Tot=              2.5827
 Quadrupole moment (field-independent basis, Debye-Ang):
   XX=           -298.8596   YY=           -271.2315   ZZ=           -275.3150
   XY=              9.8661   XZ=            -10.7370   YZ=            -12.5743

  Exact polarizability: 921.270 -36.298 826.009  29.060 -16.958 297.037
 Approx polarizability:1657.152-100.3131621.730  64.329 -32.756 492.484

 Normal termination of Gaussian 16 at Fri Sep  2 07:39:08 2022.
