 Gaussian 16, Revision A.03,
 Gaussian 16:  ES64L-G16RevA.03 25-Dec-2016

 ----------------------------------------------------------------------
 # PBE1PBE/def2TZVP empiricaldispersion=GD3BJ int=(grid=ultrafine) geom
 =check pop=nbo
 ----------------------------------------------------------------------

 ----------
 1ctj_III_D
 ----------
 Structure from the checkpoint file:  "1ctj_III_D.chk"
 Charge =  1 Multiplicity = 2

                         Standard orientation:
 ---------------------------------------------------------------------
 Center     Atomic      Atomic             Coordinates (Angstroms)
 Number     Number       Type             X           Y           Z
 ---------------------------------------------------------------------
      1          6           0        2.732842   -1.806351    4.866406
      2          6           0        1.865983   -1.204270    3.823416
      3          7           0        0.532504   -0.966886    4.012910
      4          6           0        2.111084   -0.907844    2.528273
      5          6           0        0.027008   -0.539774    2.840893
      6          7           0        0.929825   -0.502531    1.922195
      7          6           0       -0.116658    3.046120   -2.627393
      8          6           0        0.947675    1.974047   -2.822824
      9         16           0        0.339272    0.330616   -2.357081
     10          6           0        1.365063   -0.723098   -3.391704
     11         26           0        0.758187   -0.072001   -0.071199
     12          6           0       -2.613036   -0.417539   -0.074510
     13          6           0        1.123113   -3.386568   -0.698599
     14          6           0        4.115420    0.384435   -0.434289
     15          6           0        0.450783    3.138183    0.957836
     16          7           0       -0.513403   -1.628607   -0.298750
     17          6           0       -1.882390   -1.569231   -0.234513
     18          6           0       -2.418047   -2.904268   -0.440699
     19          6           0       -1.381717   -3.725970   -0.633701
     20          6           0       -0.165795   -2.941041   -0.558905
     21          6           0       -1.418561   -5.226516   -0.917778
     22          6           0       -3.906093   -3.266769   -0.314700
     23          6           0       -4.380155   -3.256343    1.141591
     24          6           0       -5.893673   -3.201405    1.298829
     25          8           0       -6.332790   -3.563402    2.444099
     26          8           0       -6.575646   -2.782577    0.364046
     27          7           0        2.318344   -1.251409   -0.487365
     28          6           0        2.258856   -2.621892   -0.702296
     29          6           0        3.588049   -3.123950   -0.966370
     30          6           0        4.417690   -2.056341   -0.958302
     31          6           0        3.633096   -0.891520   -0.670524
     32          6           0        3.950299   -4.599677   -1.121154
     33          6           0        5.922820   -2.019324   -1.190498
     34          6           0        6.320954   -2.466809   -2.607612
     35          7           0        2.012715    1.458471    0.209569
     36          6           0        3.376325    1.440448    0.049702
     37          6           0        3.954638    2.708308    0.500422
     38          6           0        2.944580    3.447766    0.969842
     39          6           0        1.727827    2.690476    0.761084
     40          6           0        5.467311    3.020727    0.472745
     41          6           0        2.984404    4.768057    1.749747
     42          6           0        3.625533    5.935881    0.980419
     43          7           0       -0.755453    1.123677    0.302477
     44          6           0       -0.705369    2.464634    0.680910
     45          6           0       -2.036514    3.019017    0.715602
     46          6           0       -2.892932    2.041892    0.351511
     47          6           0       -2.106039    0.843079    0.177757
     48          6           0       -2.351093    4.500680    0.966999
     49          6           0       -4.398912    2.185330    0.127897
     50          6           0       -4.709694    2.652631   -1.319067
     51          6           0       -6.184974    2.874719   -1.522047
     52          8           0       -6.969615    1.912679   -1.452403
     53          8           0       -6.503094    4.037156   -1.839699
     54          1           0        3.430387   -1.074434    5.216587
     55          1           0        2.128023   -2.141943    5.682784
     56          1           0        3.265209   -2.636840    4.451950
     57          1           0        0.025647   -1.088438    4.866327
     58          1           0        3.064081   -0.974839    2.046394
     59          1           0       -0.996301   -0.265517    2.690821
     60          1           0        0.346116    4.010834   -2.619210
     61          1           0       -0.824059    2.996666   -3.428666
     62          1           0       -0.619659    2.883926   -1.697026
     63          1           0        1.737156    2.206715   -2.139095
     64          1           0        1.144452    1.934518   -3.873831
     65          1           0        1.295553   -1.734738   -3.050159
     66          1           0        2.382497   -0.396696   -3.335226
     67          1           0        1.027574   -0.664912   -4.405418
     68          1           0       -3.676628   -0.504542   -0.152633
     69          1           0        1.255329   -4.441737   -0.817077
     70          1           0        5.148722    0.565008   -0.645430
     71          1           0        0.345872    4.119091    1.372217
     72          1           0       -0.437189   -5.636136   -0.799370
     73          1           0       -1.755458   -5.391645   -1.919842
     74          1           0       -2.088842   -5.702786   -0.233095
     75          1           0       -3.996734   -4.278421   -0.651219
     76          1           0       -4.446478   -2.487589   -0.810444
     77          1           0       -4.010079   -2.344703    1.562134
     78          1           0       -4.078231   -4.196723    1.553208
     79          1           0        4.891163   -4.685186   -1.623512
     80          1           0        3.193920   -5.094432   -1.693873
     81          1           0        4.019585   -5.053212   -0.154507
     82          1           0        6.342858   -2.742533   -0.523089
     83          1           0        6.208642   -0.991057   -1.113865
     84          1           0        6.925558   -1.710915   -3.063657
     85          1           0        6.874951   -3.380454   -2.550680
     86          1           0        5.439249   -2.620279   -3.194079
     87          1           0        5.619725    4.063043    0.660484
     88          1           0        5.964015    2.446198    1.226470
     89          1           0        5.865910    2.769328   -0.487889
     90          1           0        3.621335    4.589643    2.590811
     91          1           0        1.962566    5.046547    1.902026
     92          1           0        3.301553    6.863158    1.404791
     93          1           0        4.691054    5.865512    1.048344
     94          1           0        3.329912    5.891216   -0.046963
     95          1           0       -3.374719    4.694367    0.722919
     96          1           0       -2.180337    4.731653    1.997724
     97          1           0       -1.717449    5.108563    0.355548
     98          1           0       -4.727262    2.970682    0.776209
     99          1           0       -4.813582    1.203650    0.224081
    100          1           0       -4.435744    1.842757   -1.962461
    101          1           0       -4.242686    3.608491   -1.433678
    102          1           0       -6.869299    4.631627   -1.180839
    103          1           0       -7.419879   -2.359755    0.537515
 ---------------------------------------------------------------------

 SCF Done:  E(UPBE1PBE) =  -3881.71602307     A.U. after   66 cycles

 Alpha virt. eigenvalues --    0.97444   0.97677   0.97932   0.98336   0.98644
 Alpha virt. eigenvalues --    0.98752   0.98822   0.99114   0.99325   0.99445
 Alpha virt. eigenvalues --    1.00335   1.00453   1.00869   1.01132   1.01239

  Beta  occ. eigenvalues -- -256.50643 -89.14757 -30.27102 -26.10111 -26.09980
  Beta  occ. eigenvalues --  -26.09232 -19.34258 -19.32513 -19.25633 -19.23689
  Beta  occ. eigenvalues --  -14.54812 -14.51065 -14.49057 -14.48787 -14.48554
  Beta  occ. eigenvalues --  -14.48491 -10.42381 -10.42018 -10.38704 -10.36095
  Beta  occ. eigenvalues --  -10.35522 -10.35321 -10.35227 -10.35199 -10.35156
  Beta  occ. eigenvalues --  -10.35099 -10.35050 -10.35026 -10.34327 -10.33692
  Beta  occ. eigenvalues --  -10.33607 -10.32536 -10.32417 -10.32262 -10.32148
  Beta  occ. eigenvalues --  -10.32099 -10.32033 -10.31985 -10.31880 -10.31767
  Beta  occ. eigenvalues --  -10.31763 -10.31734 -10.31643 -10.31604 -10.31570
  Beta  occ. eigenvalues --  -10.30832 -10.30786 -10.30686 -10.30686 -10.30534
  Beta  occ. eigenvalues --  -10.30531 -10.30251 -10.30079 -10.29803 -10.29666
  Beta  occ. eigenvalues --  -10.28238 -10.28120  -8.12522  -6.06116  -6.05871
  Beta  occ. eigenvalues --   -6.05454  -3.59421  -2.34827  -2.34632  -2.34069
  Beta  occ. eigenvalues --   -1.24974  -1.23986  -1.17173  -1.10444  -1.08840
  Beta  occ. eigenvalues --   -1.07783  -1.07707  -1.07460  -1.06689  -1.02518
  Beta  occ. eigenvalues --   -0.94979  -0.94382  -0.93203  -0.92664  -0.92308
  Beta  occ. eigenvalues --   -0.91998  -0.91476  -0.91338  -0.91190  -0.88542
  Beta  occ. eigenvalues --   -0.87931  -0.87248  -0.86699  -0.86244  -0.85985
  Beta  occ. eigenvalues --   -0.83603  -0.82683  -0.81963  -0.81450  -0.80972
  Beta  occ. eigenvalues --   -0.79342  -0.78608  -0.78100  -0.77596  -0.76261
  Beta  occ. eigenvalues --   -0.75969  -0.75359  -0.73514  -0.73268  -0.72839
  Beta  occ. eigenvalues --   -0.72650  -0.72382  -0.70733  -0.69844  -0.68493
  Beta  occ. eigenvalues --   -0.67042  -0.65833  -0.65019  -0.64968  -0.63775
  Beta  occ. eigenvalues --   -0.62550  -0.62218  -0.61730  -0.60509  -0.59978
  Beta  occ. eigenvalues --   -0.59485  -0.59292  -0.59194  -0.58615  -0.58491
  Beta  occ. eigenvalues --   -0.58283  -0.58109  -0.57806  -0.57183  -0.57128
  Beta  occ. eigenvalues --   -0.56659  -0.56520  -0.56180  -0.55642  -0.55163
  Beta  occ. eigenvalues --   -0.55072  -0.54534  -0.54452  -0.54227  -0.54000
  Beta  occ. eigenvalues --   -0.53879  -0.53742  -0.53483  -0.53193  -0.53047
  Beta  occ. eigenvalues --   -0.52543  -0.52419  -0.52247  -0.52097  -0.51772
  Beta  occ. eigenvalues --   -0.51359  -0.51168  -0.51019  -0.50803  -0.50641
  Beta  occ. eigenvalues --   -0.50289  -0.50118  -0.49831  -0.49425  -0.49227
  Beta  occ. eigenvalues --   -0.49179  -0.48738  -0.48146  -0.48010  -0.47922
  Beta  occ. eigenvalues --   -0.47759  -0.47541  -0.47443  -0.47338  -0.46821
  Beta  occ. eigenvalues --   -0.46566  -0.46485  -0.46170  -0.45967  -0.45787
  Beta  occ. eigenvalues --   -0.45410  -0.45147  -0.44824  -0.44538  -0.43819
  Beta  occ. eigenvalues --   -0.43521  -0.43351  -0.43263  -0.43062  -0.42654
  Beta  occ. eigenvalues --   -0.42485  -0.41999  -0.41730  -0.41216  -0.40744
  Beta  occ. eigenvalues --   -0.38989  -0.38489  -0.38391  -0.38122  -0.37805
  Beta  occ. eigenvalues --   -0.35977  -0.35464  -0.34803  -0.34699  -0.34366
  Beta  occ. eigenvalues --   -0.33887  -0.33198  -0.32520  -0.29962  -0.29189
  Beta virt. eigenvalues --   -0.19514  -0.17364  -0.15550  -0.14098  -0.10680
  Beta virt. eigenvalues --   -0.10534  -0.08716  -0.07895  -0.06991  -0.06712
  Beta virt. eigenvalues --   -0.06170  -0.05880  -0.05507  -0.05436  -0.05013

 Mulliken charges and spin densities:
               1          2
     1  C   -0.350526  -0.000176
     2  C    0.131166  -0.000151
     3  N   -0.212018  -0.000845
     4  C   -0.188994   0.002052
     5  C    0.026585   0.001519
     6  N    0.067498  -0.035719
     7  C   -0.353491  -0.000101
     8  C   -0.157713   0.004027
     9  S    0.075365  -0.047740
    10  C   -0.377021   0.004413
    11  Fe  -0.484869   1.162542
    12  C   -0.510590  -0.010202
    13  C   -0.529965  -0.005723
    14  C   -0.471369  -0.008700
    15  C   -0.500109  -0.005111
    16  N    0.059659  -0.041764
    17  C    0.260557   0.003816
    18  C    0.032155   0.014698
    19  C   -0.094273  -0.005030
    20  C    0.312723   0.012567
    21  C   -0.407560  -0.000349
    22  C   -0.322062  -0.001172
    23  C   -0.166617   0.000716
    24  C    0.255221   0.000061
    25  O   -0.384668   0.000174
    26  O   -0.298805  -0.000000
    27  N    0.044769  -0.039474
    28  C    0.200644   0.011708
    29  C   -0.053629  -0.003491
    30  C   -0.026348   0.017002
    31  C    0.191384   0.002112
    32  C   -0.393000  -0.000513
    33  C   -0.170857  -0.001032
    34  C   -0.384914   0.000603
    35  N   -0.003360  -0.040046
    36  C    0.216067   0.002452
    37  C   -0.060958   0.015790
    38  C   -0.093742  -0.004899
    39  C    0.396791   0.012169
    40  C   -0.378557  -0.001003
    41  C   -0.167651  -0.000301
    42  C   -0.369696  -0.000121
    43  N    0.074035  -0.038712
    44  C    0.122095   0.010239
    45  C   -0.056480  -0.002866
    46  C    0.085273   0.016047
    47  C    0.278435   0.004144
    48  C   -0.377574  -0.000489
    49  C   -0.410903  -0.001390
    50  C   -0.135506   0.000991
    51  C    0.284359   0.000099
    52  O   -0.336192   0.000112
    53  O   -0.342873   0.000011
    54  H    0.158468   0.000003
    55  H    0.132146  -0.000003
    56  H    0.156798  -0.000001
    57  H    0.251834  -0.000165
    58  H    0.161051  -0.000373
    59  H    0.177108  -0.000446
    60  H    0.133717  -0.000068
    61  H    0.134609  -0.000123
    62  H    0.126653   0.000368
    63  H    0.141043  -0.001331
    64  H    0.150858  -0.000803
    65  H    0.172637  -0.000228
    66  H    0.154453  -0.000105
    67  H    0.178632  -0.002123
    68  H    0.131436   0.000139
    69  H    0.111623   0.000171
    70  H    0.114681   0.000114
    71  H    0.118368   0.000195
    72  H    0.134114  -0.000044
    73  H    0.160681  -0.000159
    74  H    0.145996  -0.000141
    75  H    0.141756   0.000028
    76  H    0.133611   0.000422
    77  H    0.124164   0.000004
    78  H    0.133891   0.000005
    79  H    0.153837  -0.000111
    80  H    0.137831  -0.000013
    81  H    0.152770  -0.000015
    82  H    0.135000   0.000562
    83  H    0.102194   0.000018
    84  H    0.134125   0.000098
    85  H    0.131120   0.000020
    86  H    0.137447   0.000025
    87  H    0.131528   0.000004
    88  H    0.155055   0.000740
    89  H    0.141488   0.000382
    90  H    0.130749  -0.000150
    91  H    0.100021  -0.000070
    92  H    0.138206   0.000017
    93  H    0.119549   0.000004
    94  H    0.126637  -0.000012
    95  H    0.123976  -0.000097
    96  H    0.155009   0.000012
    97  H    0.151527  -0.000015
    98  H    0.137840   0.000219
    99  H    0.122457   0.000193
   100  H    0.127701  -0.000075
   101  H    0.111686  -0.000044
   102  H    0.359857   0.000023
   103  H    0.360175   0.000010
 Sum of Mulliken charges =   1.00000   1.00000

 Dipole moment (field-independent basis, Debye):
    X=              6.9590    Y=              3.2514    Z=              1.8494  Tot=              7.9006
 Quadrupole moment (field-independent basis, Debye-Ang):
   XX=           -272.6549   YY=           -252.9654   ZZ=           -282.5091
   XY=            -30.8282   XZ=              5.3707   YZ=             10.8818

 Summary of Natural Population Analysis:

                                       Natural Population
                Natural  -----------------------------------------------
    Atom  No    Charge         Core      Valence    Rydberg      Total
 -----------------------------------------------------------------------
      C    1   -0.32134      0.99969     2.31579    0.00586     3.32134
      C    2    0.06081      0.99954     1.93063    0.00902     2.93919
      N    3   -0.23849      0.99969     2.72896    0.00984     3.73849
      C    4   -0.03920      0.99942     2.03085    0.00893     3.03920
      C    5    0.10710      0.99963     1.88238    0.01088     2.89290
      N    6   -0.18545      0.99966     2.65718    0.02861     3.68545
      C    7   -0.30612      0.99972     2.30076    0.00563     3.30612
      C    8   -0.26453      0.99968     2.25532    0.00953     3.26453
      S    9    0.29517      4.99935     2.68719    0.01829     7.70483
      C   10   -0.37268      0.99964     2.36386    0.00918     3.37268
     Fe   11    0.63055      8.99538     3.34701    0.02706    12.36945
      C   12   -0.12454      0.99947     2.11641    0.00866     3.12454
      C   13   -0.12296      0.99946     2.11501    0.00849     3.12296
      C   14   -0.12328      0.99947     2.11532    0.00849     3.12328
      C   15   -0.12155      0.99945     2.11346    0.00864     3.12155
      N   16   -0.20582      0.99967     2.68187    0.02428     3.70582
      C   17    0.07818      0.99951     1.91212    0.01019     2.92182
      C   18    0.00412      0.99938     1.98731    0.00919     2.99588
      C   19   -0.01056      0.99939     2.00310    0.00807     3.01056
      C   20    0.08866      0.99951     1.90103    0.01080     2.91134
      C   21   -0.31793      0.99970     2.31452    0.00372     3.31793
      C   22   -0.21774      0.99968     2.21113    0.00693     3.21774
      C   23   -0.24484      0.99964     2.23648    0.00872     3.24484
      C   24    0.37919      0.99977     1.60290    0.01815     2.62081
      O   25   -0.30517      0.99991     3.29397    0.01129     4.30517
      O   26   -0.31906      0.99979     3.30504    0.01423     4.31906
      N   27   -0.21387      0.99968     2.68985    0.02435     3.71387
      C   28    0.08596      0.99950     1.90382    0.01073     2.91404
      C   29   -0.01086      0.99941     2.00339    0.00807     3.01086
      C   30    0.00178      0.99942     1.98922    0.00958     2.99822
      C   31    0.07428      0.99950     1.91572    0.01050     2.92572
      C   32   -0.32033      0.99970     2.31688    0.00375     3.32033
      C   33   -0.21731      0.99970     2.21049    0.00712     3.21731
      C   34   -0.30217      0.99972     2.29919    0.00325     3.30217
      N   35   -0.20902      0.99967     2.68520    0.02415     3.70902
      C   36    0.07798      0.99952     1.91216    0.01034     2.92202
      C   37    0.00437      0.99938     1.98829    0.00796     2.99563
      C   38   -0.01266      0.99938     2.00348    0.00980     3.01266
      C   39    0.09089      0.99950     1.89876    0.01085     2.90911
      C   40   -0.31996      0.99969     2.31668    0.00359     3.31996
      C   41   -0.21185      0.99970     2.20542    0.00674     3.21185
      C   42   -0.29789      0.99972     2.29525    0.00292     3.29789
      N   43   -0.21037      0.99967     2.68748    0.02322     3.71037
      C   44    0.08228      0.99949     1.90728    0.01095     2.91772
      C   45   -0.01012      0.99939     2.00245    0.00828     3.01012
      C   46   -0.00015      0.99939     1.99122    0.00954     3.00015
      C   47    0.07615      0.99950     1.91430    0.01005     2.92385
      C   48   -0.31971      0.99969     2.31632    0.00369     3.31971
      C   49   -0.20618      0.99967     2.19965    0.00686     3.20618
      C   50   -0.25311      0.99964     2.24508    0.00839     3.25311
      C   51    0.38451      0.99974     1.59755    0.01820     2.61549
      O   52   -0.28149      0.99989     3.26976    0.01184     4.28149
      O   53   -0.34194      0.99979     3.32715    0.01500     4.34194
      H   54    0.11933      0.00000     0.38017    0.00050     0.38067
      H   55    0.11288      0.00000     0.38668    0.00044     0.38712
      H   56    0.12061      0.00000     0.37893    0.00046     0.37939
      H   57    0.21440      0.00000     0.28483    0.00077     0.28560
      H   58    0.11728      0.00000     0.38197    0.00075     0.38272
      H   59    0.11205      0.00000     0.38715    0.00080     0.38795
      H   60    0.11213      0.00000     0.38733    0.00054     0.38787
      H   61    0.10767      0.00000     0.39177    0.00056     0.39233
      H   62    0.10969      0.00000     0.38931    0.00100     0.39031
      H   63    0.11814      0.00000     0.38063    0.00123     0.38186
      H   64    0.11692      0.00000     0.38221    0.00086     0.38308
      H   65    0.12605      0.00000     0.37345    0.00051     0.37395
      H   66    0.11558      0.00000     0.38349    0.00092     0.38442
      H   67    0.11726      0.00000     0.38218    0.00056     0.38274
      H   68    0.11205      0.00000     0.38651    0.00145     0.38795
      H   69    0.11394      0.00000     0.38466    0.00140     0.38606
      H   70    0.11260      0.00000     0.38573    0.00167     0.38740
      H   71    0.11190      0.00000     0.38653    0.00157     0.38810
      H   72    0.10929      0.00000     0.39015    0.00056     0.39071
      H   73    0.11612      0.00000     0.38317    0.00071     0.38388
      H   74    0.11365      0.00000     0.38566    0.00069     0.38635
      H   75    0.11451      0.00000     0.38471    0.00078     0.38549
      H   76    0.11535      0.00000     0.38364    0.00101     0.38465
      H   77    0.11678      0.00000     0.38246    0.00076     0.38322
      H   78    0.12111      0.00000     0.37811    0.00079     0.37889
      H   79    0.11505      0.00000     0.38426    0.00069     0.38495
      H   80    0.11204      0.00000     0.38731    0.00065     0.38796
      H   81    0.11487      0.00000     0.38438    0.00075     0.38513
      H   82    0.11564      0.00000     0.38351    0.00085     0.38436
      H   83    0.10849      0.00000     0.39082    0.00070     0.39151
      H   84    0.10826      0.00000     0.39120    0.00054     0.39174
      H   85    0.10673      0.00000     0.39267    0.00060     0.39327
      H   86    0.10519      0.00000     0.39413    0.00068     0.39481
      H   87    0.11420      0.00000     0.38506    0.00074     0.38580
      H   88    0.11460      0.00000     0.38468    0.00072     0.38540
      H   89    0.11260      0.00000     0.38677    0.00063     0.38740
      H   90    0.11485      0.00000     0.38424    0.00091     0.38515
      H   91    0.10649      0.00000     0.39278    0.00072     0.39351
      H   92    0.10872      0.00000     0.39072    0.00056     0.39128
      H   93    0.10149      0.00000     0.39781    0.00070     0.39851
      H   94    0.10395      0.00000     0.39534    0.00071     0.39605
      H   95    0.10948      0.00000     0.38978    0.00074     0.39052
      H   96    0.11518      0.00000     0.38411    0.00071     0.38482
      H   97    0.11438      0.00000     0.38493    0.00070     0.38562
      H   98    0.11003      0.00000     0.38905    0.00092     0.38997
      H   99    0.11637      0.00000     0.38262    0.00101     0.38363
      H  100    0.12197      0.00000     0.37726    0.00076     0.37803
      H  101    0.10804      0.00000     0.39109    0.00086     0.39196
      H  102    0.26071      0.00000     0.23817    0.00112     0.23929
      H  103    0.26165      0.00000     0.23696    0.00139     0.23835
 =======================================================================
   * Total *    1.00000     64.97424   139.40271    0.62305   205.00000

 Normal termination of Gaussian 16 at Tue Sep  6 14:28:00 2022.
