 Gaussian 16, Revision A.03,
 Gaussian 16:  ES64L-G16RevA.03 25-Dec-2016

 ----------------------------------------------------------------------
 # PBE1PBE/def2TZVP empiricaldispersion=GD3BJ int=(grid=ultrafine) geom
 =check pop=nbo
 ----------------------------------------------------------------------

 ---------
 1ctj_II_Q
 ---------
 Structure from the checkpoint file:  "1ctj_II_Q.chk"
 Charge =  0 Multiplicity = 5

                         Standard orientation:
 ---------------------------------------------------------------------
 Center     Atomic      Atomic             Coordinates (Angstroms)
 Number     Number       Type             X           Y           Z
 ---------------------------------------------------------------------
      1          6           0        2.732842   -1.806351    4.866406
      2          6           0        1.865983   -1.204270    3.823416
      3          7           0        0.532504   -0.966886    4.012910
      4          6           0        2.111084   -0.907844    2.528273
      5          6           0        0.027008   -0.539774    2.840893
      6          7           0        0.929825   -0.502531    1.922195
      7          6           0       -0.116658    3.046120   -2.627393
      8          6           0        0.947675    1.974047   -2.822824
      9         16           0        0.339272    0.330616   -2.357081
     10          6           0        1.365063   -0.723098   -3.391704
     11         26           0        0.758187   -0.072001   -0.071199
     12          6           0       -2.613036   -0.417539   -0.074510
     13          6           0        1.123113   -3.386568   -0.698599
     14          6           0        4.115420    0.384435   -0.434289
     15          6           0        0.450783    3.138183    0.957836
     16          7           0       -0.513403   -1.628607   -0.298750
     17          6           0       -1.882390   -1.569231   -0.234513
     18          6           0       -2.418047   -2.904268   -0.440699
     19          6           0       -1.381717   -3.725970   -0.633701
     20          6           0       -0.165795   -2.941041   -0.558905
     21          6           0       -1.418561   -5.226516   -0.917778
     22          6           0       -3.906093   -3.266769   -0.314700
     23          6           0       -4.380155   -3.256343    1.141591
     24          6           0       -5.893673   -3.201405    1.298829
     25          8           0       -6.332790   -3.563402    2.444099
     26          8           0       -6.575646   -2.782577    0.364046
     27          7           0        2.318344   -1.251409   -0.487365
     28          6           0        2.258856   -2.621892   -0.702296
     29          6           0        3.588049   -3.123950   -0.966370
     30          6           0        4.417690   -2.056341   -0.958302
     31          6           0        3.633096   -0.891520   -0.670524
     32          6           0        3.950299   -4.599677   -1.121154
     33          6           0        5.922820   -2.019324   -1.190498
     34          6           0        6.320954   -2.466809   -2.607612
     35          7           0        2.012715    1.458471    0.209569
     36          6           0        3.376325    1.440448    0.049702
     37          6           0        3.954638    2.708308    0.500422
     38          6           0        2.944580    3.447766    0.969842
     39          6           0        1.727827    2.690476    0.761084
     40          6           0        5.467311    3.020727    0.472745
     41          6           0        2.984404    4.768057    1.749747
     42          6           0        3.625533    5.935881    0.980419
     43          7           0       -0.755453    1.123677    0.302477
     44          6           0       -0.705369    2.464634    0.680910
     45          6           0       -2.036514    3.019017    0.715602
     46          6           0       -2.892932    2.041892    0.351511
     47          6           0       -2.106039    0.843079    0.177757
     48          6           0       -2.351093    4.500680    0.966999
     49          6           0       -4.398912    2.185330    0.127897
     50          6           0       -4.709694    2.652631   -1.319067
     51          6           0       -6.184974    2.874719   -1.522047
     52          8           0       -6.969615    1.912679   -1.452403
     53          8           0       -6.503094    4.037156   -1.839699
     54          1           0        3.430387   -1.074434    5.216587
     55          1           0        2.128023   -2.141943    5.682784
     56          1           0        3.265209   -2.636840    4.451950
     57          1           0        0.025647   -1.088438    4.866327
     58          1           0        3.064081   -0.974839    2.046394
     59          1           0       -0.996301   -0.265517    2.690821
     60          1           0        0.346116    4.010834   -2.619210
     61          1           0       -0.824059    2.996666   -3.428666
     62          1           0       -0.619659    2.883926   -1.697026
     63          1           0        1.737156    2.206715   -2.139095
     64          1           0        1.144452    1.934518   -3.873831
     65          1           0        1.295553   -1.734738   -3.050159
     66          1           0        2.382497   -0.396696   -3.335226
     67          1           0        1.027574   -0.664912   -4.405418
     68          1           0       -3.676628   -0.504542   -0.152633
     69          1           0        1.255329   -4.441737   -0.817077
     70          1           0        5.148722    0.565008   -0.645430
     71          1           0        0.345872    4.119091    1.372217
     72          1           0       -0.437189   -5.636136   -0.799370
     73          1           0       -1.755458   -5.391645   -1.919842
     74          1           0       -2.088842   -5.702786   -0.233095
     75          1           0       -3.996734   -4.278421   -0.651219
     76          1           0       -4.446478   -2.487589   -0.810444
     77          1           0       -4.010079   -2.344703    1.562134
     78          1           0       -4.078231   -4.196723    1.553208
     79          1           0        4.891163   -4.685186   -1.623512
     80          1           0        3.193920   -5.094432   -1.693873
     81          1           0        4.019585   -5.053212   -0.154507
     82          1           0        6.342858   -2.742533   -0.523089
     83          1           0        6.208642   -0.991057   -1.113865
     84          1           0        6.925558   -1.710915   -3.063657
     85          1           0        6.874951   -3.380454   -2.550680
     86          1           0        5.439249   -2.620279   -3.194079
     87          1           0        5.619725    4.063043    0.660484
     88          1           0        5.964015    2.446198    1.226470
     89          1           0        5.865910    2.769328   -0.487889
     90          1           0        3.621335    4.589643    2.590811
     91          1           0        1.962566    5.046547    1.902026
     92          1           0        3.301553    6.863158    1.404791
     93          1           0        4.691054    5.865512    1.048344
     94          1           0        3.329912    5.891216   -0.046963
     95          1           0       -3.374719    4.694367    0.722919
     96          1           0       -2.180337    4.731653    1.997724
     97          1           0       -1.717449    5.108563    0.355548
     98          1           0       -4.727262    2.970682    0.776209
     99          1           0       -4.813582    1.203650    0.224081
    100          1           0       -4.435744    1.842757   -1.962461
    101          1           0       -4.242686    3.608491   -1.433678
    102          1           0       -6.869299    4.631627   -1.180839
    103          1           0       -7.419879   -2.359755    0.537515
 ---------------------------------------------------------------------

 SCF Done:  E(UPBE1PBE) =  -3881.87326083     A.U. after   56 cycles

 Alpha virt. eigenvalues --    1.06238   1.06438   1.06802   1.07095   1.07397
 Alpha virt. eigenvalues --    1.07428   1.07863   1.08032   1.08251   1.08510
 Alpha virt. eigenvalues --    1.08671   1.08976   1.09179   1.09902   1.10131

  Beta  occ. eigenvalues -- -256.32119 -89.00193 -30.05006 -25.88663 -25.88048
  Beta  occ. eigenvalues --  -25.87860 -19.27249 -19.25668 -19.18455 -19.16621
  Beta  occ. eigenvalues --  -14.44164 -14.37602 -14.35693 -14.35426 -14.35083
  Beta  occ. eigenvalues --  -14.35081 -10.35067 -10.34773 -10.27265 -10.25586
  Beta  occ. eigenvalues --  -10.24043 -10.23930 -10.23855 -10.23798 -10.23778
  Beta  occ. eigenvalues --  -10.23528 -10.23311 -10.23288 -10.23237 -10.22821
  Beta  occ. eigenvalues --  -10.22737 -10.22709 -10.22440 -10.22344 -10.22000
  Beta  occ. eigenvalues --  -10.21866 -10.21800 -10.21777 -10.21741 -10.21694
  Beta  occ. eigenvalues --  -10.21667 -10.21479 -10.21201 -10.21171 -10.21163
  Beta  occ. eigenvalues --  -10.21120 -10.21068 -10.21068 -10.21020 -10.21003
  Beta  occ. eigenvalues --  -10.20900 -10.20725 -10.20713 -10.20700 -10.20111
  Beta  occ. eigenvalues --  -10.19877 -10.19269  -7.98164  -5.91827  -5.91505
  Beta  occ. eigenvalues --   -5.90938  -3.35867  -2.10821  -2.10607  -2.10414
  Beta  occ. eigenvalues --   -1.17938  -1.17068  -1.06015  -1.03322  -1.00428
  Beta  occ. eigenvalues --   -0.97045  -0.96011  -0.95935  -0.94913  -0.91057
  Beta  occ. eigenvalues --   -0.83746  -0.83346  -0.82935  -0.82619  -0.82185
  Beta  occ. eigenvalues --   -0.81949  -0.81168  -0.80700  -0.80432  -0.79013
  Beta  occ. eigenvalues --   -0.78381  -0.77195  -0.76548  -0.75788  -0.75132
  Beta  occ. eigenvalues --   -0.73863  -0.72758  -0.72599  -0.71904  -0.71186
  Beta  occ. eigenvalues --   -0.70153  -0.69691  -0.68956  -0.66168  -0.65936
  Beta  occ. eigenvalues --   -0.65623  -0.64790  -0.64515  -0.64383  -0.63499
  Beta  occ. eigenvalues --   -0.63327  -0.61708  -0.59030  -0.59014  -0.57140
  Beta  occ. eigenvalues --   -0.56365  -0.55573  -0.54559  -0.54460  -0.53326
  Beta  occ. eigenvalues --   -0.52856  -0.52245  -0.51626  -0.51580  -0.50832
  Beta  occ. eigenvalues --   -0.50463  -0.50238  -0.49716  -0.48911  -0.48632
  Beta  occ. eigenvalues --   -0.48369  -0.48045  -0.47981  -0.47868  -0.47803
  Beta  occ. eigenvalues --   -0.47334  -0.47219  -0.46524  -0.46025  -0.45250
  Beta  occ. eigenvalues --   -0.44861  -0.44677  -0.44289  -0.44139  -0.43746
  Beta  occ. eigenvalues --   -0.43572  -0.43499  -0.43332  -0.43141  -0.43034
  Beta  occ. eigenvalues --   -0.42941  -0.42762  -0.42733  -0.42365  -0.42181
  Beta  occ. eigenvalues --   -0.41843  -0.41607  -0.41250  -0.41075  -0.40514
  Beta  occ. eigenvalues --   -0.40239  -0.39926  -0.39725  -0.39491  -0.39313
  Beta  occ. eigenvalues --   -0.39283  -0.38557  -0.38530  -0.38178  -0.38128
  Beta  occ. eigenvalues --   -0.37599  -0.37384  -0.37179  -0.37091  -0.37052
  Beta  occ. eigenvalues --   -0.36787  -0.36644  -0.36307  -0.35871  -0.35671
  Beta  occ. eigenvalues --   -0.35387  -0.35273  -0.35006  -0.34355  -0.34281
  Beta  occ. eigenvalues --   -0.33365  -0.33293  -0.33123  -0.32884  -0.32327
  Beta  occ. eigenvalues --   -0.31689  -0.31417  -0.31251  -0.31070  -0.29950
  Beta  occ. eigenvalues --   -0.29060  -0.28170  -0.27785  -0.27555  -0.26600
  Beta  occ. eigenvalues --   -0.24891  -0.24517  -0.23945  -0.23454  -0.23144
  Beta  occ. eigenvalues --   -0.22528  -0.18539  -0.18474  -0.14207
  Beta virt. eigenvalues --   -0.07296  -0.05480  -0.01697  -0.00257   0.00277
  Beta virt. eigenvalues --    0.00466   0.00835   0.01427   0.02464   0.03034
  Beta virt. eigenvalues --    0.03298   0.03576   0.03736   0.04706   0.04894

 Mulliken charges and spin densities:
               1          2
     1  C   -0.362917   0.000553
     2  C    0.140825   0.006838
     3  N   -0.228849  -0.000944
     4  C   -0.189755  -0.001816
     5  C    0.017141  -0.015342
     6  N    0.031061   0.038476
     7  C   -0.343077  -0.000651
     8  C   -0.149365  -0.001715
     9  S   -0.014483   0.066077
    10  C   -0.374024  -0.002105
    11  Fe  -0.232604   3.906961
    12  C   -0.525825   0.016114
    13  C   -0.560758  -0.063916
    14  C   -0.482350   0.014390
    15  C   -0.526267  -0.053858
    16  N   -0.016742   0.028366
    17  C    0.260690  -0.051561
    18  C    0.027459   0.040731
    19  C   -0.093926  -0.037552
    20  C    0.323996   0.035704
    21  C   -0.423224   0.003589
    22  C   -0.331510  -0.001847
    23  C   -0.163108   0.001088
    24  C    0.254542   0.000194
    25  O   -0.401827   0.000055
    26  O   -0.296747  -0.000002
    27  N   -0.037639   0.031834
    28  C    0.214715   0.034405
    29  C   -0.054964  -0.045391
    30  C   -0.020014   0.045543
    31  C    0.196527  -0.048448
    32  C   -0.409474   0.004422
    33  C   -0.188991  -0.001805
    34  C   -0.378592   0.001032
    35  N   -0.080419   0.029227
    36  C    0.215599  -0.053007
    37  C   -0.058737   0.039889
    38  C   -0.096839  -0.036558
    39  C    0.409848   0.036054
    40  C   -0.396605  -0.001664
    41  C   -0.177668   0.004548
    42  C   -0.365494  -0.001410
    43  N   -0.006503   0.036232
    44  C    0.137149   0.033965
    45  C   -0.063979  -0.044869
    46  C    0.085603   0.045885
    47  C    0.277694  -0.052996
    48  C   -0.392691   0.004507
    49  C   -0.423495  -0.002084
    50  C   -0.129093   0.001395
    51  C    0.279987   0.000362
    52  O   -0.346220   0.000206
    53  O   -0.347718  -0.000012
    54  H    0.145984   0.000072
    55  H    0.117099   0.000093
    56  H    0.148904   0.000034
    57  H    0.230054   0.002583
    58  H    0.147255   0.001373
    59  H    0.160558   0.002208
    60  H    0.108162   0.000284
    61  H    0.110183   0.000679
    62  H    0.135436  -0.000404
    63  H    0.129337   0.002729
    64  H    0.119806   0.000148
    65  H    0.160052   0.000435
    66  H    0.136731   0.001067
    67  H    0.146673   0.001669
    68  H    0.110650  -0.001197
    69  H    0.089142   0.002793
    70  H    0.092087  -0.001038
    71  H    0.093996   0.002367
    72  H    0.127041  -0.000232
    73  H    0.144647  -0.001547
    74  H    0.129310  -0.000612
    75  H    0.126544   0.000513
    76  H    0.127386   0.000688
    77  H    0.132265  -0.000052
    78  H    0.123739   0.000009
    79  H    0.137368  -0.000112
    80  H    0.129916  -0.001330
    81  H    0.136558  -0.002327
    82  H    0.120187   0.001054
    83  H    0.097628   0.000214
    84  H    0.119649   0.000196
    85  H    0.113803   0.000094
    86  H    0.140437   0.000091
    87  H    0.117117   0.000382
    88  H    0.142104   0.001256
    89  H    0.133739   0.000675
    90  H    0.116017  -0.001169
    91  H    0.095360  -0.000151
    92  H    0.119648  -0.000227
    93  H    0.107935   0.000119
    94  H    0.126244   0.000065
    95  H    0.106780   0.000234
    96  H    0.140969  -0.001949
    97  H    0.143594  -0.002069
    98  H    0.123903   0.000681
    99  H    0.117448   0.000468
   100  H    0.130002  -0.000012
   101  H    0.107000  -0.000028
   102  H    0.352143   0.000075
   103  H    0.351068   0.000022
 Sum of Mulliken charges =  -0.00000   4.00000

 Dipole moment (field-independent basis, Debye):
    X=              3.8107    Y=              3.2699    Z=              2.5975  Tot=              5.6534
 Quadrupole moment (field-independent basis, Debye-Ang):
   XX=           -332.7056   YY=           -303.6628   ZZ=           -313.6482
   XY=            -29.9211   XZ=              6.7093   YZ=              8.9249

 Summary of Natural Population Analysis:

                                       Natural Population
                Natural  -----------------------------------------------
    Atom  No    Charge         Core      Valence    Rydberg      Total
 -----------------------------------------------------------------------
      C    1   -0.31881      0.99969     2.31579    0.00333     3.31881
      C    2    0.05331      0.99953     1.93780    0.00936     2.94669
      N    3   -0.24476      0.99969     2.73523    0.00983     3.74476
      C    4   -0.04023      0.99941     2.03129    0.00952     3.04023
      C    5    0.09104      0.99962     1.89732    0.01202     2.90896
      N    6   -0.16377      0.99970     2.63417    0.02990     3.66377
      C    7   -0.30457      0.99972     2.29877    0.00608     3.30457
      C    8   -0.26631      0.99968     2.25646    0.01016     3.26631
      S    9    0.29832      4.99916     2.68068    0.02184     7.70168
      C   10   -0.37390      0.99965     2.36529    0.00896     3.37390
     Fe   11    1.99327      8.99505     1.97447    0.03722    11.00673
      C   12   -0.10926      0.99947     2.10142    0.00837     3.10926
      C   13   -0.15218      0.99945     2.14412    0.00861     3.15218
      C   14   -0.10980      0.99947     2.10205    0.00828     3.10980
      C   15   -0.14519      0.99944     2.13694    0.00881     3.14519
      N   16   -0.18467      0.99972     2.66361    0.02134     3.68467
      C   17    0.04016      0.99951     1.94976    0.01058     2.95984
      C   18    0.00890      0.99938     1.98251    0.00922     2.99110
      C   19   -0.03875      0.99938     2.03082    0.00856     3.03875
      C   20    0.09778      0.99951     1.89152    0.01120     2.90222
      C   21   -0.31581      0.99970     2.31231    0.00380     3.31581
      C   22   -0.21787      0.99969     2.21104    0.00715     3.21787
      C   23   -0.24570      0.99964     2.23721    0.00885     3.24570
      C   24    0.38158      0.99976     1.60037    0.01828     2.61842
      O   25   -0.31419      0.99990     3.30300    0.01128     4.31419
      O   26   -0.31870      0.99979     3.30459    0.01432     4.31870
      N   27   -0.19487      0.99972     2.67420    0.02094     3.69487
      C   28    0.09718      0.99949     1.89241    0.01093     2.90282
      C   29   -0.04555      0.99940     2.03745    0.00870     3.04555
      C   30    0.00874      0.99941     1.98232    0.00952     2.99126
      C   31    0.03827      0.99950     1.95162    0.01060     2.96173
      C   32   -0.31720      0.99970     2.31372    0.00378     3.31720
      C   33   -0.21742      0.99970     2.21027    0.00745     3.21742
      C   34   -0.30251      0.99972     2.29953    0.00325     3.30251
      N   35   -0.18810      0.99971     2.66811    0.02028     3.68810
      C   36    0.04241      0.99951     1.94766    0.01042     2.95759
      C   37    0.00960      0.99937     1.98264    0.00839     2.99040
      C   38   -0.04140      0.99937     2.03244    0.00959     3.04140
      C   39    0.09936      0.99950     1.88999    0.01115     2.90064
      C   40   -0.31969      0.99970     2.31646    0.00353     3.31969
      C   41   -0.20866      0.99970     2.20246    0.00650     3.20866
      C   42   -0.29915      0.99972     2.29642    0.00300     3.29915
      N   43   -0.19026      0.99971     2.67039    0.02016     3.69026
      C   44    0.09124      0.99949     1.89778    0.01150     2.90876
      C   45   -0.04320      0.99939     2.03505    0.00877     3.04320
      C   46    0.00569      0.99939     1.98539    0.00954     2.99431
      C   47    0.03633      0.99950     1.95389    0.01028     2.96367
      C   48   -0.31670      0.99970     2.31327    0.00373     3.31670
      C   49   -0.20577      0.99967     2.19902    0.00708     3.20577
      C   50   -0.25400      0.99964     2.24579    0.00856     3.25400
      C   51    0.38571      0.99974     1.59618    0.01837     2.61429
      O   52   -0.28753      0.99989     3.27582    0.01182     4.28753
      O   53   -0.34457      0.99979     3.32982    0.01496     4.34457
      H   54    0.11383      0.00000     0.38548    0.00069     0.38617
      H   55    0.10732      0.00000     0.39207    0.00061     0.39268
      H   56    0.11670      0.00000     0.38272    0.00058     0.38330
      H   57    0.20757      0.00000     0.29162    0.00081     0.29243
      H   58    0.11571      0.00000     0.38353    0.00076     0.38429
      H   59    0.10961      0.00000     0.38958    0.00081     0.39039
      H   60    0.10483      0.00000     0.39455    0.00063     0.39517
      H   61    0.10211      0.00000     0.39722    0.00066     0.39789
      H   62    0.11172      0.00000     0.38728    0.00101     0.38828
      H   63    0.11564      0.00000     0.38287    0.00149     0.38436
      H   64    0.10978      0.00000     0.38932    0.00091     0.39022
      H   65    0.12203      0.00000     0.37736    0.00061     0.37797
      H   66    0.11113      0.00000     0.38787    0.00100     0.38887
      H   67    0.10829      0.00000     0.39104    0.00067     0.39171
      H   68    0.10433      0.00000     0.39427    0.00140     0.39567
      H   69    0.10768      0.00000     0.39092    0.00141     0.39232
      H   70    0.10530      0.00000     0.39302    0.00168     0.39470
      H   71    0.10567      0.00000     0.39275    0.00158     0.39433
      H   72    0.10755      0.00000     0.39186    0.00059     0.39245
      H   73    0.10955      0.00000     0.38963    0.00082     0.39045
      H   74    0.10736      0.00000     0.39187    0.00076     0.39264
      H   75    0.11009      0.00000     0.38910    0.00081     0.38991
      H   76    0.11342      0.00000     0.38556    0.00103     0.38658
      H   77    0.12069      0.00000     0.37848    0.00082     0.37931
      H   78    0.11851      0.00000     0.38067    0.00082     0.38149
      H   79    0.10926      0.00000     0.38999    0.00074     0.39074
      H   80    0.10836      0.00000     0.39089    0.00076     0.39164
      H   81    0.10814      0.00000     0.39096    0.00091     0.39186
      H   82    0.11059      0.00000     0.38848    0.00092     0.38941
      H   83    0.10783      0.00000     0.39144    0.00073     0.39217
      H   84    0.10380      0.00000     0.39563    0.00058     0.39620
      H   85    0.10173      0.00000     0.39762    0.00065     0.39827
      H   86    0.10674      0.00000     0.39254    0.00072     0.39326
      H   87    0.10876      0.00000     0.39047    0.00078     0.39124
      H   88    0.11055      0.00000     0.38867    0.00078     0.38945
      H   89    0.10973      0.00000     0.38959    0.00068     0.39027
      H   90    0.10749      0.00000     0.39141    0.00111     0.39251
      H   91    0.10587      0.00000     0.39335    0.00078     0.39413
      H   92    0.10271      0.00000     0.39667    0.00062     0.39729
      H   93    0.09863      0.00000     0.40062    0.00075     0.40137
      H   94    0.10418      0.00000     0.39508    0.00074     0.39582
      H   95    0.10389      0.00000     0.39532    0.00080     0.39611
      H   96    0.10876      0.00000     0.39038    0.00086     0.39124
      H   97    0.11041      0.00000     0.38874    0.00084     0.38959
      H   98    0.10561      0.00000     0.39342    0.00097     0.39439
      H   99    0.11509      0.00000     0.38390    0.00101     0.38491
      H  100    0.12357      0.00000     0.37564    0.00079     0.37643
      H  101    0.10725      0.00000     0.39188    0.00087     0.39275
      H  102    0.25826      0.00000     0.24054    0.00121     0.24174
      H  103    0.25851      0.00000     0.23995    0.00153     0.24149
 =======================================================================
   * Total *    2.00000     64.97386   138.39240    0.63374   204.00000

 Normal termination of Gaussian 16 at Tue Sep  6 10:37:25 2022.
