 Gaussian 16, Revision A.03,
 Gaussian 16:  ES64L-G16RevA.03 25-Dec-2016

 ---------------------------------------------------------------------
 # polar def2tzvp empiricaldispersion=gd3bj int=grid=ultrafine pbe1pbe
 ---------------------------------------------------------------------

 ---------
 1dj1_II_S
 ---------
 Symbolic Z-matrix:
 Charge =  0 Multiplicity = 1

                         Standard orientation:
 ---------------------------------------------------------------------
 Center     Atomic      Atomic             Coordinates (Angstroms)
 Number     Number       Type             X           Y           Z
 ---------------------------------------------------------------------
      1          6           0       -1.444174   -1.865382    5.050118
      2          6           0       -1.498607   -1.013993    3.808626
      3          7           0       -2.231865    0.139167    3.709204
      4          6           0       -0.914146   -1.175016    2.595920
      5          6           0       -2.096858    0.665164    2.503230
      6          7           0       -1.295447   -0.123387    1.805434
      7          6           0        2.393795    0.066198    0.040204
      8          6           0       -0.964645    3.543879   -0.145169
      9          6           0       -4.271036    0.109005   -0.665525
     10          6           0       -0.859581   -3.266799   -0.686226
     11          6           0        1.795281    1.358725    0.060166
     12          6           0        2.451617    2.569848    0.144195
     13          6           0        1.474970    3.574331    0.158187
     14          6           0        0.275436    2.902173    0.049059
     15          6           0        1.722805    5.077708    0.131454
     16          6           0        3.967497    2.780335    0.343882
     17          6           0        4.718878    2.872864   -0.966426
     18          6           0        6.244106    2.887923   -0.754200
     19          8           0        6.779280    3.852919   -0.214335
     20          8           0        6.941122    2.009898   -1.265120
     21          6           0       -2.218621    2.910197   -0.298711
     22          6           0       -3.444475    3.586342   -0.252847
     23          6           0       -4.411798    2.588158   -0.385848
     24          6           0       -3.712206    1.379267   -0.488668
     25          6           0       -3.569646    5.099841   -0.274923
     26          6           0       -5.763369    2.776278   -0.718439
     27          6           0       -6.471126    3.862744   -0.186844
     28          6           0       -3.660714   -1.159815   -0.853558
     29          6           0       -4.306568   -2.370728   -1.114323
     30          6           0       -3.261401   -3.295076   -1.295700
     31          6           0       -2.112699   -2.651385   -0.842603
     32          6           0       -5.718413   -2.583418   -1.718764
     33          6           0       -3.286334   -4.651230   -1.643327
     34          6           0       -4.345313   -5.619766   -1.460105
     35          6           0        0.272943   -2.701217   -0.081315
     36          6           0        1.472136   -3.393287    0.089211
     37          6           0        2.414142   -2.408311    0.397227
     38          6           0        1.795131   -1.195658    0.093209
     39          6           0        1.631787   -4.887409    0.359121
     40          6           0        3.894342   -2.679305    0.712962
     41          6           0        4.778101   -2.671847   -0.550899
     42          6           0        6.291797   -2.755547   -0.254580
     43          8           0        7.053650   -2.246969   -1.059064
     44          8           0        6.625000   -2.956546    0.903521
     45          7           0        0.478453    1.574353   -0.082442
     46          7           0       -2.396895    1.599085   -0.463145
     47          7           0       -2.328021   -1.322130   -0.745992
     48          7           0        0.484731   -1.381805   -0.148728
     49         26           0       -0.961935    0.102152   -0.216955
     50          8           0       -0.477748    0.272847   -2.254685
     51          1           0       -5.205299   -5.368004   -0.875349
     52          1           0       -4.268538   -6.587849   -1.909349
     53          1           0       -2.398038   -5.023219   -2.109648
     54          1           0       -5.752635   -3.527293   -2.221585
     55          1           0       -6.447410   -2.569846   -0.935642
     56          1           0       -5.929542   -1.799898   -2.416202
     57          1           0       -0.759198   -4.262534   -1.064823
     58          1           0        2.298994   -5.310873   -0.362276
     59          1           0        2.030394   -5.031781    1.341551
     60          1           0        0.677868   -5.366757    0.287259
     61          1           0        3.977383   -3.634822    1.187294
     62          1           0        4.247663   -1.926584    1.386368
     63          1           0        4.504155   -3.505526   -1.163135
     64          1           0        4.586771   -1.770677   -1.095129
     65          1           0        7.287470   -2.717516   -1.862502
     66          1           0        6.765811    1.719880   -2.163316
     67          1           0        4.460665    2.032018   -1.575691
     68          1           0        4.428946    3.770719   -1.471099
     69          1           0        4.358583    1.960333    0.909169
     70          1           0        4.121047    3.684710    0.894726
     71          1           0        3.461781    0.060510   -0.025170
     72          1           0        1.580523    5.445009   -0.863406
     73          1           0        1.036566    5.564133    0.792791
     74          1           0        2.725344    5.279570    0.446206
     75          1           0       -0.955689    4.613286   -0.179660
     76          1           0       -3.949384    5.412497   -1.225157
     77          1           0       -4.239972    5.413597    0.497812
     78          1           0       -2.607762    5.539676   -0.112977
     79          1           0       -6.252624    2.090049   -1.377696
     80          1           0       -7.379001    4.188159   -0.650275
     81          1           0       -6.103638    4.366872    0.682471
     82          1           0       -5.340839    0.089963   -0.657842
     83          1           0        0.066437   -0.332487   -2.763637
     84          1           0       -0.034491    0.485552   -1.430136
     85          1           0       -0.270262   -1.979601    2.307899
     86          1           0       -2.789157    0.527398    4.443168
     87          1           0       -2.554087    1.567364    2.154120
     88          1           0       -0.756440   -2.671243    4.900083
     89          1           0       -1.120089   -1.269267    5.877473
     90          1           0       -2.417328   -2.260396    5.254655
 ---------------------------------------------------------------------

 SCF Done:  E(RPBE1PBE) =  -3438.60381879     A.U. after   21 cycles

 The electronic state is 1-A.
 Alpha  occ. eigenvalues -- -256.32143 -30.08682 -25.91465 -25.91227 -25.91141
 Alpha  occ. eigenvalues --  -19.26699 -19.26084 -19.19548 -19.18374 -19.17182
 Alpha  occ. eigenvalues --  -14.45558 -14.40148 -14.36913 -14.36659 -14.36629
 Alpha  occ. eigenvalues --  -14.36512 -10.35160 -10.34520 -10.28823 -10.26910
 Alpha  occ. eigenvalues --  -10.24522 -10.24392 -10.24377 -10.24241 -10.24173
 Alpha  occ. eigenvalues --  -10.24168 -10.24067 -10.24029 -10.24014 -10.23758
 Alpha  occ. eigenvalues --  -10.23546 -10.23526 -10.23111 -10.22902 -10.22795
 Alpha  occ. eigenvalues --  -10.22695 -10.22680 -10.22655 -10.22569 -10.22566
 Alpha  occ. eigenvalues --  -10.22549 -10.22511 -10.22473 -10.22370 -10.22229
 Alpha  occ. eigenvalues --  -10.22182 -10.21997 -10.21674 -10.21574 -10.21542
 Alpha  occ. eigenvalues --  -10.21504 -10.21491 -10.21238 -10.20826  -3.43667
 Alpha  occ. eigenvalues --   -2.19860  -2.19008  -2.18829  -1.19211  -1.17823
 Alpha  occ. eigenvalues --   -1.07628  -1.04565  -1.04287  -1.03076  -0.99852
 Alpha  occ. eigenvalues --   -0.99325  -0.98946  -0.98237  -0.91840  -0.84015
 Alpha  occ. eigenvalues --   -0.83482  -0.83296  -0.83229  -0.82513  -0.82164
 Alpha  occ. eigenvalues --   -0.81488  -0.81084  -0.79395  -0.78617  -0.77074
 Alpha  occ. eigenvalues --   -0.75783  -0.75118  -0.73915  -0.73583  -0.72826
 Alpha  occ. eigenvalues --   -0.72025  -0.71361  -0.70758  -0.70076  -0.69640
 Alpha  occ. eigenvalues --   -0.67398  -0.66822  -0.65944  -0.65676  -0.65518
 Alpha  occ. eigenvalues --   -0.63232  -0.62749  -0.61922  -0.58993  -0.58590
 Alpha  occ. eigenvalues --   -0.58013  -0.57588  -0.56881  -0.55599  -0.54856
 Alpha  occ. eigenvalues --   -0.53892  -0.53722  -0.53563  -0.53118  -0.52645
 Alpha  occ. eigenvalues --   -0.52501  -0.51731  -0.50811  -0.49805  -0.49091
 Alpha  occ. eigenvalues --   -0.48978  -0.48952  -0.48767  -0.48682  -0.48192
 Alpha  occ. eigenvalues --   -0.47175  -0.46393  -0.45958  -0.45814  -0.45266
 Alpha  occ. eigenvalues --   -0.45200  -0.44810  -0.44506  -0.44397  -0.44186
 Alpha  occ. eigenvalues --   -0.44068  -0.43956  -0.43643  -0.43402  -0.43098
 Alpha  occ. eigenvalues --   -0.42851  -0.42764  -0.42398  -0.42207  -0.41963
 Alpha  occ. eigenvalues --   -0.41494  -0.41278  -0.40951  -0.40681  -0.40257
 Alpha  occ. eigenvalues --   -0.40168  -0.39604  -0.39467  -0.39194  -0.39031
 Alpha  occ. eigenvalues --   -0.38796  -0.38500  -0.37920  -0.37760  -0.37406
 Alpha  occ. eigenvalues --   -0.37181  -0.37000  -0.36600  -0.36301  -0.36197
 Alpha  occ. eigenvalues --   -0.35487  -0.35383  -0.34926  -0.34246  -0.34064
 Alpha  occ. eigenvalues --   -0.33616  -0.32566  -0.32467  -0.32237  -0.31586
 Alpha  occ. eigenvalues --   -0.30953  -0.30610  -0.29522  -0.29268  -0.28332
 Alpha  occ. eigenvalues --   -0.27723  -0.27397  -0.27305  -0.25676  -0.24680
 Alpha  occ. eigenvalues --   -0.24270  -0.22742  -0.22359  -0.21603  -0.20260
 Alpha  occ. eigenvalues --   -0.20041  -0.19699  -0.18873
 Alpha virt. eigenvalues --   -0.08504  -0.08178  -0.04442  -0.01410  -0.01109
 Alpha virt. eigenvalues --   -0.00736   0.00356   0.00609   0.00935   0.01396
 Alpha virt. eigenvalues --    0.02400   0.02906   0.02948   0.03433   0.04361

 Mulliken charges:
               1
     1  C   -0.380070
     2  C    0.155780
     3  N   -0.212226
     4  C   -0.179267
     5  C    0.028336
     6  N   -0.010025
     7  C   -0.560173
     8  C   -0.437932
     9  C   -0.500426
    10  C   -0.440141
    11  C    0.269420
    12  C    0.070185
    13  C   -0.109842
    14  C    0.184428
    15  C   -0.380441
    16  C   -0.384483
    17  C   -0.229441
    18  C    0.302818
    19  O   -0.343419
    20  O   -0.303842
    21  C    0.261321
    22  C   -0.130143
    23  C    0.029093
    24  C    0.271351
    25  C   -0.291062
    26  C   -0.189985
    27  C   -0.298701
    28  C    0.252015
    29  C   -0.077088
    30  C    0.016610
    31  C    0.257964
    32  C   -0.408738
    33  C   -0.184850
    34  C   -0.312067
    35  C    0.137315
    36  C   -0.036244
    37  C   -0.037161
    38  C    0.295483
    39  C   -0.402908
    40  C   -0.258432
    41  C   -0.312512
    42  C    0.284805
    43  O   -0.307095
    44  O   -0.314025
    45  N   -0.125611
    46  N   -0.078653
    47  N   -0.004708
    48  N   -0.093649
    49  Fe  -0.175826
    50  O   -0.426011
    51  H    0.145679
    52  H    0.133925
    53  H    0.114124
    54  H    0.154902
    55  H    0.131502
    56  H    0.135440
    57  H    0.110809
    58  H    0.128398
    59  H    0.143785
    60  H    0.136225
    61  H    0.116140
    62  H    0.142962
    63  H    0.127079
    64  H    0.128388
    65  H    0.347372
    66  H    0.342931
    67  H    0.108880
    68  H    0.131158
    69  H    0.138090
    70  H    0.148257
    71  H    0.122873
    72  H    0.142792
    73  H    0.131726
    74  H    0.137658
    75  H    0.114483
    76  H    0.141809
    77  H    0.117355
    78  H    0.116997
    79  H    0.123669
    80  H    0.127715
    81  H    0.128192
    82  H    0.127161
    83  H    0.322375
    84  H    0.224187
    85  H    0.139968
    86  H    0.230820
    87  H    0.178873
    88  H    0.146585
    89  H    0.137431
    90  H    0.141562
 Sum of Mulliken charges =  -0.00000

 Dipole moment (field-independent basis, Debye):
    X=             -3.2714    Y=             -2.8626    Z=             -0.5119  Tot=              4.3771
 Quadrupole moment (field-independent basis, Debye-Ang):
   XX=           -327.0620   YY=           -292.4635   ZZ=           -263.3024
   XY=            -28.7190   XZ=            -56.6551   YZ=              9.5464

  Exact polarizability: 830.995  -7.797 790.733  39.179  30.457 362.923
 Approx polarizability:1425.523 -26.2141480.217  90.621  80.865 591.823

 Normal termination of Gaussian 16 at Sat Aug 27 02:08:49 2022.
