 Gaussian 16, Revision A.03,
 Gaussian 16:  ES64L-G16RevA.03 25-Dec-2016

 ----------------------------------------------------------------------
 # PBE1PBE/def2TZVP empiricaldispersion=GD3BJ scf=maxcycle=999 geom=che
 ck pop=nbo
 ----------------------------------------------------------------------

 ----------
 2gsm_III_H
 ----------
 Structure from the checkpoint file:  "1dj1_III_H.chk"
 Charge =  1 Multiplicity = 6

                         Standard orientation:
 ---------------------------------------------------------------------
 Center     Atomic      Atomic             Coordinates (Angstroms)
 Number     Number       Type             X           Y           Z
 ---------------------------------------------------------------------
      1          6           0       -1.444174   -1.865382    5.050118
      2          6           0       -1.498607   -1.013993    3.808626
      3          7           0       -2.231865    0.139167    3.709204
      4          6           0       -0.914146   -1.175016    2.595920
      5          6           0       -2.096858    0.665164    2.503230
      6          7           0       -1.295447   -0.123387    1.805434
      7          6           0        2.393795    0.066198    0.040204
      8          6           0       -0.964645    3.543879   -0.145169
      9          6           0       -4.271036    0.109005   -0.665525
     10          6           0       -0.859581   -3.266799   -0.686226
     11          6           0        1.795281    1.358725    0.060166
     12          6           0        2.451617    2.569848    0.144195
     13          6           0        1.474970    3.574331    0.158187
     14          6           0        0.275436    2.902173    0.049059
     15          6           0        1.722805    5.077708    0.131454
     16          6           0        3.967497    2.780335    0.343882
     17          6           0        4.718878    2.872864   -0.966426
     18          6           0        6.244106    2.887923   -0.754200
     19          8           0        6.779280    3.852919   -0.214335
     20          8           0        6.941122    2.009898   -1.265120
     21          6           0       -2.218621    2.910197   -0.298711
     22          6           0       -3.444475    3.586342   -0.252847
     23          6           0       -4.411798    2.588158   -0.385848
     24          6           0       -3.712206    1.379267   -0.488668
     25          6           0       -3.569646    5.099841   -0.274923
     26          6           0       -5.763369    2.776278   -0.718439
     27          6           0       -6.471126    3.862744   -0.186844
     28          6           0       -3.660714   -1.159815   -0.853558
     29          6           0       -4.306568   -2.370728   -1.114323
     30          6           0       -3.261401   -3.295076   -1.295700
     31          6           0       -2.112699   -2.651385   -0.842603
     32          6           0       -5.718413   -2.583418   -1.718764
     33          6           0       -3.286334   -4.651230   -1.643327
     34          6           0       -4.345313   -5.619766   -1.460105
     35          6           0        0.272943   -2.701217   -0.081315
     36          6           0        1.472136   -3.393287    0.089211
     37          6           0        2.414142   -2.408311    0.397227
     38          6           0        1.795131   -1.195658    0.093209
     39          6           0        1.631787   -4.887409    0.359121
     40          6           0        3.894342   -2.679305    0.712962
     41          6           0        4.778101   -2.671847   -0.550899
     42          6           0        6.291797   -2.755547   -0.254580
     43          8           0        7.053650   -2.246969   -1.059064
     44          8           0        6.625000   -2.956546    0.903521
     45          7           0        0.478453    1.574353   -0.082442
     46          7           0       -2.396895    1.599085   -0.463145
     47          7           0       -2.328021   -1.322130   -0.745992
     48          7           0        0.484731   -1.381805   -0.148728
     49         26           0       -0.961935    0.102152   -0.216955
     50          8           0       -0.477748    0.272847   -2.254685
     51          1           0       -5.205299   -5.368004   -0.875349
     52          1           0       -4.268538   -6.587849   -1.909349
     53          1           0       -2.398038   -5.023219   -2.109648
     54          1           0       -5.752635   -3.527293   -2.221585
     55          1           0       -6.447410   -2.569846   -0.935642
     56          1           0       -5.929542   -1.799898   -2.416202
     57          1           0       -0.759198   -4.262534   -1.064823
     58          1           0        2.298994   -5.310873   -0.362276
     59          1           0        2.030394   -5.031781    1.341551
     60          1           0        0.677868   -5.366757    0.287259
     61          1           0        3.977383   -3.634822    1.187294
     62          1           0        4.247663   -1.926584    1.386368
     63          1           0        4.504155   -3.505526   -1.163135
     64          1           0        4.586771   -1.770677   -1.095129
     65          1           0        7.287470   -2.717516   -1.862502
     66          1           0        6.765811    1.719880   -2.163316
     67          1           0        4.460665    2.032018   -1.575691
     68          1           0        4.428946    3.770719   -1.471099
     69          1           0        4.358583    1.960333    0.909169
     70          1           0        4.121047    3.684710    0.894726
     71          1           0        3.461781    0.060510   -0.025170
     72          1           0        1.580523    5.445009   -0.863406
     73          1           0        1.036566    5.564133    0.792791
     74          1           0        2.725344    5.279570    0.446206
     75          1           0       -0.955689    4.613286   -0.179660
     76          1           0       -3.949384    5.412497   -1.225157
     77          1           0       -4.239972    5.413597    0.497812
     78          1           0       -2.607762    5.539676   -0.112977
     79          1           0       -6.252624    2.090049   -1.377696
     80          1           0       -7.379001    4.188159   -0.650275
     81          1           0       -6.103638    4.366872    0.682471
     82          1           0       -5.340839    0.089963   -0.657842
     83          1           0        0.066437   -0.332487   -2.763637
     84          1           0       -0.034491    0.485552   -1.430136
     85          1           0       -0.270262   -1.979601    2.307899
     86          1           0       -2.789157    0.527398    4.443168
     87          1           0       -2.554087    1.567364    2.154120
     88          1           0       -0.756440   -2.671243    4.900083
     89          1           0       -1.120089   -1.269267    5.877473
     90          1           0       -2.417328   -2.260396    5.254655
 ---------------------------------------------------------------------

 SCF Done:  E(UPBE1PBE) =  -3438.40699584     A.U. after   37 cycles

 Alpha virt. eigenvalues --    0.60242   0.60408   0.60549   0.60814   0.61207
 Alpha virt. eigenvalues --    0.61296   0.61730   0.61952   0.62143   0.62535
 Alpha virt. eigenvalues --    0.62766   0.62944   0.63037   0.63240   0.63338

  Beta  occ. eigenvalues -- -256.57824 -30.30825 -26.14112 -26.14004 -26.13964
  Beta  occ. eigenvalues --  -19.33504 -19.32951 -19.32944 -19.25439 -19.24200
  Beta  occ. eigenvalues --  -14.56449 -14.51662 -14.48744 -14.48156 -14.48093
  Beta  occ. eigenvalues --  -14.47994 -10.42397 -10.41696 -10.40538 -10.37616
  Beta  occ. eigenvalues --  -10.36078 -10.35963 -10.35837 -10.35761 -10.35714
  Beta  occ. eigenvalues --  -10.35654 -10.35559 -10.35541 -10.35291 -10.33765
  Beta  occ. eigenvalues --  -10.33631 -10.33506 -10.33441 -10.33417 -10.33249
  Beta  occ. eigenvalues --  -10.33088 -10.33038 -10.32942 -10.32885 -10.32812
  Beta  occ. eigenvalues --  -10.32657 -10.32512 -10.32447 -10.32270 -10.32242
  Beta  occ. eigenvalues --  -10.31677 -10.31633 -10.31446 -10.31254 -10.31230
  Beta  occ. eigenvalues --  -10.30818 -10.30642 -10.30559 -10.30112  -3.60032
  Beta  occ. eigenvalues --   -2.35027  -2.34104  -2.34044  -1.26074  -1.24731
  Beta  occ. eigenvalues --   -1.18772  -1.17930  -1.11601  -1.11552  -1.10916
  Beta  occ. eigenvalues --   -1.10618  -1.10047  -1.09778  -1.03230  -0.94994
  Beta  occ. eigenvalues --   -0.93830  -0.93268  -0.93161  -0.93068  -0.92471
  Beta  occ. eigenvalues --   -0.92412  -0.91911  -0.89131  -0.88119  -0.87054
  Beta  occ. eigenvalues --   -0.86237  -0.85693  -0.83972  -0.83646  -0.82447
  Beta  occ. eigenvalues --   -0.81980  -0.81322  -0.80304  -0.78816  -0.77888
  Beta  occ. eigenvalues --   -0.77106  -0.76827  -0.76661  -0.74950  -0.74736
  Beta  occ. eigenvalues --   -0.74146  -0.72902  -0.72133  -0.71622  -0.69902
  Beta  occ. eigenvalues --   -0.69687  -0.68543  -0.67546  -0.66250  -0.65444
  Beta  occ. eigenvalues --   -0.64170  -0.63661  -0.63221  -0.63059  -0.61565
  Beta  occ. eigenvalues --   -0.61525  -0.60628  -0.60149  -0.59951  -0.59684
  Beta  occ. eigenvalues --   -0.59559  -0.58769  -0.57806  -0.57398  -0.56916
  Beta  occ. eigenvalues --   -0.56512  -0.56235  -0.56054  -0.55675  -0.55397
  Beta  occ. eigenvalues --   -0.55066  -0.54984  -0.54591  -0.54268  -0.54145
  Beta  occ. eigenvalues --   -0.53918  -0.53602  -0.53462  -0.53286  -0.53210
  Beta  occ. eigenvalues --   -0.52861  -0.52543  -0.52267  -0.51973  -0.51570
  Beta  occ. eigenvalues --   -0.51535  -0.51436  -0.50975  -0.50813  -0.50582
  Beta  occ. eigenvalues --   -0.50118  -0.49933  -0.49540  -0.49166  -0.48668
  Beta  occ. eigenvalues --   -0.48522  -0.48383  -0.48115  -0.47949  -0.47762
  Beta  occ. eigenvalues --   -0.47487  -0.47187  -0.47028  -0.46714  -0.46352
  Beta  occ. eigenvalues --   -0.46121  -0.45616  -0.45464  -0.44066  -0.43870
  Beta  occ. eigenvalues --   -0.43326  -0.42898  -0.42755  -0.42612  -0.42549
  Beta  occ. eigenvalues --   -0.41379  -0.40296  -0.39992  -0.39431  -0.38546
  Beta  occ. eigenvalues --   -0.38038  -0.36357  -0.35619  -0.35165  -0.34741
  Beta  occ. eigenvalues --   -0.34183  -0.32773  -0.32156  -0.30891  -0.29935
  Beta virt. eigenvalues --   -0.22710  -0.22260  -0.20998  -0.18783  -0.18437
  Beta virt. eigenvalues --   -0.16274  -0.14569  -0.14374  -0.11000  -0.09640
  Beta virt. eigenvalues --   -0.09328  -0.08339  -0.07837  -0.07092  -0.06269

 Mulliken charges and spin densities:
               1          2
     1  C   -0.365099   0.001113
     2  C    0.144615   0.008172
     3  N   -0.193656   0.004556
     4  C   -0.174516  -0.001704
     5  C    0.040523   0.008782
     6  N   -0.013559   0.067833
     7  C   -0.552156  -0.014755
     8  C   -0.430139  -0.016910
     9  C   -0.496838  -0.016052
    10  C   -0.419784   0.001513
    11  C    0.283812   0.007476
    12  C    0.086962   0.023998
    13  C   -0.115742   0.017089
    14  C    0.199031   0.012133
    15  C   -0.363481   0.000421
    16  C   -0.383187  -0.000631
    17  C   -0.238442   0.000971
    18  C    0.304923   0.000186
    19  O   -0.328365   0.000133
    20  O   -0.299001   0.000066
    21  C    0.278501   0.017780
    22  C   -0.132025   0.020177
    23  C    0.057666   0.022171
    24  C    0.270804   0.014596
    25  C   -0.287768  -0.000282
    26  C   -0.194007  -0.013848
    27  C   -0.269162   0.026438
    28  C    0.268065   0.017971
    29  C   -0.068794   0.014943
    30  C    0.029696   0.028112
    31  C    0.265890   0.001411
    32  C   -0.403295   0.000237
    33  C   -0.193933  -0.019733
    34  C   -0.276071   0.034179
    35  C    0.139665  -0.001871
    36  C   -0.026214   0.017774
    37  C   -0.025357   0.018937
    38  C    0.311398   0.016145
    39  C   -0.392243   0.000675
    40  C   -0.251508  -0.000018
    41  C   -0.315361   0.000634
    42  C    0.290235   0.000124
    43  O   -0.304680   0.000082
    44  O   -0.304362   0.000027
    45  N   -0.145493   0.072018
    46  N   -0.119834   0.066935
    47  N   -0.026430   0.071276
    48  N   -0.134908   0.075511
    49  Fe   0.008682   4.314782
    50  O   -0.374917   0.070909
    51  H    0.162127  -0.001390
    52  H    0.158157  -0.001350
    53  H    0.128613   0.001416
    54  H    0.166084   0.000355
    55  H    0.146853   0.000463
    56  H    0.145511   0.000579
    57  H    0.132178  -0.000174
    58  H    0.146076   0.000617
    59  H    0.157815   0.000687
    60  H    0.140880  -0.000014
    61  H    0.129201   0.000407
    62  H    0.151824   0.000204
    63  H    0.135177  -0.000023
    64  H    0.124796   0.000015
    65  H    0.354538  -0.000001
    66  H    0.345482  -0.000006
    67  H    0.107897   0.000012
    68  H    0.141384  -0.000022
    69  H    0.146195   0.000311
    70  H    0.162411   0.000459
    71  H    0.147344  -0.000119
    72  H    0.158297   0.000743
    73  H    0.141461   0.000383
    74  H    0.152635   0.000288
    75  H    0.135911   0.000128
    76  H    0.161122   0.000904
    77  H    0.131625   0.000801
    78  H    0.124522  -0.000008
    79  H    0.140006   0.001165
    80  H    0.152651  -0.001025
    81  H    0.142833  -0.001174
    82  H    0.149783  -0.000175
    83  H    0.346795   0.006058
    84  H    0.209634  -0.006802
    85  H    0.155763   0.001157
    86  H    0.250724   0.001393
    87  H    0.193091   0.000593
    88  H    0.152438   0.000001
    89  H    0.153979   0.000277
    90  H    0.156049   0.000386
 Sum of Mulliken charges =   1.00000   5.00000

 Dipole moment (field-independent basis, Debye):
    X=             -8.4721    Y=             -3.0062    Z=             -0.5274  Tot=              9.0051
 Quadrupole moment (field-independent basis, Debye-Ang):
   XX=           -258.4542   YY=           -236.2931   ZZ=           -244.3237
   XY=            -28.6680   XZ=            -53.6549   YZ=             11.2634

 Summary of Natural Population Analysis:

                                       Natural Population
                Natural  -----------------------------------------------
    Atom  No    Charge         Core      Valence    Rydberg      Total
 -----------------------------------------------------------------------
      C    1   -0.32037      0.99969     2.31762    0.00306     3.32037
      C    2    0.07026      0.99954     1.92147    0.00873     2.92974
      N    3   -0.22768      0.99967     2.71844    0.00957     3.72768
      C    4   -0.03395      0.99943     2.02526    0.00926     3.03395
      C    5    0.11105      0.99964     1.87881    0.01050     2.88895
      N    6   -0.15862      0.99970     2.63829    0.02063     3.65862
      C    7   -0.10178      0.99956     2.09424    0.00798     3.10178
      C    8   -0.09192      0.99955     2.08510    0.00727     3.09192
      C    9   -0.09071      0.99956     2.08407    0.00708     3.09071
      C   10   -0.08574      0.99953     2.07887    0.00734     3.08574
      C   11    0.07118      0.99946     1.91914    0.01022     2.92882
      C   12    0.01050      0.99942     1.98059    0.00950     2.98950
      C   13    0.01430      0.99942     1.97810    0.00819     2.98570
      C   14    0.07214      0.99944     1.91818    0.01025     2.92786
      C   15   -0.32045      0.99970     2.31718    0.00357     3.32045
      C   16   -0.20916      0.99966     2.20227    0.00723     3.20916
      C   17   -0.25221      0.99963     2.24408    0.00850     3.25221
      C   18    0.38038      0.99977     1.60135    0.01851     2.61962
      O   19   -0.27829      0.99989     3.26577    0.01264     4.27829
      O   20   -0.32186      0.99978     3.30595    0.01613     4.32186
      C   21    0.07249      0.99948     1.91764    0.01038     2.92751
      C   22    0.02591      0.99945     1.96638    0.00825     2.97409
      C   23   -0.03815      0.99945     2.02875    0.00995     3.03815
      C   24    0.08408      0.99950     1.90617    0.01025     2.91592
      C   25   -0.31832      0.99969     2.31223    0.00640     3.31832
      C   26   -0.11661      0.99961     2.10793    0.00907     3.11661
      C   27   -0.15604      0.99971     2.15093    0.00539     3.15604
      C   28    0.07927      0.99948     1.91150    0.00975     2.92073
      C   29    0.01834      0.99942     1.97390    0.00834     2.98166
      C   30   -0.03024      0.99945     2.02072    0.01007     3.03024
      C   31    0.08217      0.99948     1.90807    0.01028     2.91783
      C   32   -0.31975      0.99969     2.31659    0.00347     3.31975
      C   33   -0.11575      0.99963     2.10731    0.00881     3.11575
      C   34   -0.15035      0.99973     2.14549    0.00513     3.15035
      C   35    0.06338      0.99943     1.92671    0.01048     2.93662
      C   36    0.00850      0.99943     1.98354    0.00853     2.99150
      C   37    0.00635      0.99942     1.98514    0.00908     2.99365
      C   38    0.06648      0.99947     1.92397    0.01008     2.93352
      C   39   -0.32111      0.99969     2.31775    0.00367     3.32111
      C   40   -0.21261      0.99967     2.20507    0.00787     3.21261
      C   41   -0.25354      0.99963     2.24572    0.00819     3.25354
      C   42    0.38003      0.99977     1.60170    0.01851     2.61997
      O   43   -0.32909      0.99977     3.31281    0.01651     4.32909
      O   44   -0.27159      0.99988     3.25893    0.01278     4.27159
      N   45   -0.19075      0.99963     2.66938    0.02174     3.69075
      N   46   -0.17609      0.99966     2.65471    0.02173     3.67609
      N   47   -0.16240      0.99967     2.64170    0.02104     3.66240
      N   48   -0.18519      0.99967     2.66341    0.02211     3.68519
     Fe   49    2.42761      8.99477     1.54620    0.03142    10.57239
      O   50   -0.34800      0.99992     3.33339    0.01469     4.34800
      H   51    0.09877      0.00000     0.40047    0.00076     0.40123
      H   52    0.10492      0.00000     0.39444    0.00064     0.39508
      H   53    0.10389      0.00000     0.39523    0.00087     0.39611
      H   54    0.11947      0.00000     0.37979    0.00074     0.38053
      H   55    0.11316      0.00000     0.38618    0.00067     0.38684
      H   56    0.11359      0.00000     0.38572    0.00069     0.38641
      H   57    0.11279      0.00000     0.38626    0.00095     0.38721
      H   58    0.11463      0.00000     0.38467    0.00070     0.38537
      H   59    0.11790      0.00000     0.38136    0.00073     0.38210
      H   60    0.11287      0.00000     0.38652    0.00061     0.38713
      H   61    0.11846      0.00000     0.38080    0.00074     0.38154
      H   62    0.11786      0.00000     0.38146    0.00069     0.38214
      H   63    0.11139      0.00000     0.38791    0.00070     0.38861
      H   64    0.10683      0.00000     0.39241    0.00076     0.39317
      H   65    0.25651      0.00000     0.24239    0.00110     0.24349
      H   66    0.25197      0.00000     0.24690    0.00113     0.24803
      H   67    0.09791      0.00000     0.40127    0.00082     0.40209
      H   68    0.11894      0.00000     0.38042    0.00065     0.38106
      H   69    0.11146      0.00000     0.38774    0.00080     0.38854
      H   70    0.12013      0.00000     0.37906    0.00081     0.37987
      H   71    0.11036      0.00000     0.38827    0.00137     0.38964
      H   72    0.11738      0.00000     0.38192    0.00070     0.38262
      H   73    0.11403      0.00000     0.38528    0.00069     0.38597
      H   74    0.11719      0.00000     0.38214    0.00068     0.38281
      H   75    0.11189      0.00000     0.38675    0.00136     0.38811
      H   76    0.12259      0.00000     0.37665    0.00076     0.37741
      H   77    0.11544      0.00000     0.38398    0.00058     0.38456
      H   78    0.10910      0.00000     0.39047    0.00043     0.39090
      H   79    0.11144      0.00000     0.38771    0.00085     0.38856
      H   80    0.10415      0.00000     0.39519    0.00066     0.39585
      H   81    0.09602      0.00000     0.40320    0.00078     0.40398
      H   82    0.11188      0.00000     0.38723    0.00089     0.38812
      H   83    0.25385      0.00000     0.24518    0.00098     0.24615
      H   84    0.21818      0.00000     0.27867    0.00315     0.28182
      H   85    0.11975      0.00000     0.37949    0.00076     0.38025
      H   86    0.21437      0.00000     0.28491    0.00072     0.28563
      H   87    0.11839      0.00000     0.38074    0.00087     0.38161
      H   88    0.12140      0.00000     0.37816    0.00044     0.37860
      H   89    0.11637      0.00000     0.38301    0.00062     0.38363
      H   90    0.11670      0.00000     0.38268    0.00062     0.38330
 =======================================================================
   * Total *    3.00000     57.97531   126.44111    0.58358   185.00000

 Normal termination of Gaussian 16 at Thu Sep  1 16:02:18 2022.
