 Gaussian 16, Revision A.03,
 Gaussian 16:  AM64L-G16RevA.03 25-Dec-2016

 ----------------------------------------------------------------------
 # PBE1PBE/def2TZVP empiricaldispersion=GD3BJ geom=check guess=read scr
 f=(smd,solvent=Chloroform)
 ----------------------------------------------------------------------

 ---------------
 1drm_III_D_solv
 ---------------
 Structure from the checkpoint file:  "1drm_III_D.chk"
 Charge =  1 Multiplicity = 2

                         Standard orientation:
 ---------------------------------------------------------------------
 Center     Atomic      Atomic             Coordinates (Angstroms)
 Number     Number       Type             X           Y           Z
 ---------------------------------------------------------------------
      1          6           0       -1.131239   -1.830485    5.439987
      2          6           0       -1.273583   -1.064428    4.143753
      3          7           0       -1.820839    0.199580    4.043630
      4          6           0       -0.879682   -1.385500    2.882889
      5          6           0       -1.739390    0.610183    2.760300
      6          7           0       -1.178207   -0.307977    1.990809
      7         26           0       -0.933636   -0.056462   -0.107600
      8          6           0        2.491177    0.681681    0.071878
      9          6           0       -0.361600   -3.437758   -0.512035
     10          6           0       -4.128773   -0.659191   -1.119583
     11          6           0       -1.592933    3.387985    0.096321
     12          7           0        0.675452   -1.196588   -0.177292
     13          6           0        2.070118   -0.674044   -0.092725
     14          6           0        2.925176   -1.797215   -0.260569
     15          6           0        2.106334   -2.920942   -0.409620
     16          6           0        0.762633   -2.537964   -0.356589
     17          6           0        2.532451   -4.422787   -0.663620
     18          6           0        4.447444   -1.616867   -0.498741
     19          6           0        5.162547   -2.596475    0.138973
     20          6           0        6.533866   -2.640906   -0.387884
     21          8           0        7.399573   -2.534376    0.550848
     22          8           0        6.748551   -2.807573   -1.646386
     23          7           0       -2.031406   -1.608491   -0.592476
     24          6           0       -1.583912   -3.032035   -0.678672
     25          6           0       -2.654949   -3.918092   -0.865341
     26          6           0       -3.740850   -3.206399   -1.063934
     27          6           0       -3.395806   -1.732125   -0.900453
     28          6           0       -2.582868   -5.446412   -0.887283
     29          6           0       -5.065573   -3.903276   -1.330823
     30          6           0       -6.280066   -3.089301   -1.814611
     31          7           0       -2.460926    1.035707   -0.426196
     32          6           0       -3.698136    0.638070   -0.879217
     33          6           0       -4.547130    1.813154   -1.082251
     34          6           0       -3.848928    2.860019   -0.791307
     35          6           0       -2.587351    2.437439   -0.381308
     36          6           0       -6.064878    1.754859   -1.607828
     37          6           0       -4.069877    4.422235   -0.990125
     38          6           0       -5.294211    5.112928   -0.361198
     39          7           0        0.021874    1.597653    0.078434
     40          6           0       -0.375527    3.018401    0.198626
     41          6           0        0.790581    3.923289    0.427248
     42          6           0        1.873808    3.181125    0.507274
     43          6           0        1.496624    1.795753    0.236006
     44          6           0        0.759487    5.375560    0.605862
     45          6           0        3.418827    3.486200    0.840954
     46          6           0        4.250171    3.731435   -0.470891
     47          6           0        5.540488    3.506291   -1.158741
     48          8           0        5.386745    3.776098   -2.345632
     49          8           0        6.159471    2.520293   -0.778444
     50          1           0        4.693090    3.344747   -2.849992
     51          1           0        3.576989    3.327486   -1.197906
     52          1           0        4.185541    4.797404   -0.537469
     53          1           0        3.834238    2.652684    1.367818
     54          1           0        3.477776    4.356629    1.460453
     55          1           0        3.536926    0.908103    0.078365
     56          1           0        4.646753   -1.663530   -1.548978
     57          1           0        4.750691   -0.661011   -0.125536
     58          1           0        4.689738   -3.542761   -0.021941
     59          1           0        5.192043   -2.388346    1.188121
     60          1           0        7.413546   -3.174813    1.265862
     61          1           0        1.936087   -4.834469   -1.450874
     62          1           0        3.564893   -4.458330   -0.942369
     63          1           0        2.384645   -4.991571    0.230549
     64          1           0       -0.175424   -4.491170   -0.488353
     65          1           0       -3.184335   -5.820364   -1.689341
     66          1           0       -1.567816   -5.753598   -1.029434
     67          1           0       -2.946049   -5.833976    0.041584
     68          1           0       -6.500534    0.816037   -1.336321
     69          1           0       -6.626665    2.550284   -1.164438
     70          1           0       -6.077864    1.859448   -2.672625
     71          1           0       -5.116793   -0.796598   -1.506670
     72          1           0       -1.879567    4.384970    0.358544
     73          1           0       -0.236362    5.684049    0.846733
     74          1           0        1.420434    5.651373    1.400832
     75          1           0        1.071657    5.853015   -0.299392
     76          1           0       -1.437730   -2.844680    5.290412
     77          1           0       -0.109242   -1.809678    5.756198
     78          1           0       -1.746037   -1.379076    6.190421
     79          1           0       -0.415438   -2.307076    2.599911
     80          1           0       -2.085548    1.559827    2.409229
     81          1           0       -2.213363    0.724909    4.798584
     82          1           0       -5.153998   -4.959251   -1.182506
     83          1           0       -7.148078   -3.592896   -2.185888
     84          1           0       -6.255890   -2.020151   -1.779473
     85          1           0       -3.367869    4.993481   -1.560882
     86          1           0       -6.276737    4.730734   -0.544147
     87          1           0       -5.162359    5.975019    0.258732
 ---------------------------------------------------------------------

 SCF Done:  E(UPBE1PBE) =  -3361.86742709     A.U. after   70 cycles

 Alpha virt. eigenvalues --    0.58194   0.58539   0.58931   0.59231   0.59425
 Alpha virt. eigenvalues --    0.59694   0.59898   0.60042   0.60277   0.60514
 Alpha virt. eigenvalues --    0.60904   0.61441   0.61683   0.61856   0.61944

  Beta  occ. eigenvalues -- -256.39338 -30.14805 -25.98175 -25.97639 -25.97024
  Beta  occ. eigenvalues --  -19.26476 -19.25526 -19.20700 -19.20247 -14.46561
  Beta  occ. eigenvalues --  -14.44300 -14.43640 -14.43417 -14.43257 -14.42620
  Beta  occ. eigenvalues --  -10.37326 -10.36834 -10.31281 -10.31006 -10.29928
  Beta  occ. eigenvalues --  -10.29842 -10.29757 -10.29279 -10.29059 -10.29003
  Beta  occ. eigenvalues --  -10.28996 -10.28715 -10.28662 -10.28341 -10.28249
  Beta  occ. eigenvalues --  -10.26611 -10.26546 -10.26313 -10.26247 -10.26139
  Beta  occ. eigenvalues --  -10.26127 -10.25978 -10.25949 -10.25856 -10.25818
  Beta  occ. eigenvalues --  -10.25772 -10.25715 -10.25626 -10.25504 -10.25287
  Beta  occ. eigenvalues --  -10.23755 -10.23687 -10.23435 -10.23265 -10.23230
  Beta  occ. eigenvalues --  -10.23045 -10.22824 -10.21973  -3.47061  -2.23476
  Beta  occ. eigenvalues --   -2.22783  -2.20210  -1.19188  -1.16112  -1.07595
  Beta  occ. eigenvalues --   -1.05779  -1.03514  -1.02311  -1.00177  -0.99052
  Beta  occ. eigenvalues --   -0.97618  -0.93020  -0.88595  -0.87805  -0.86461
  Beta  occ. eigenvalues --   -0.85713  -0.85352  -0.84892  -0.83652  -0.82622
  Beta  occ. eigenvalues --   -0.81725  -0.81436  -0.80172  -0.78241  -0.77070
  Beta  occ. eigenvalues --   -0.76181  -0.74822  -0.74529  -0.74179  -0.73850
  Beta  occ. eigenvalues --   -0.72360  -0.71792  -0.70820  -0.70204  -0.68670
  Beta  occ. eigenvalues --   -0.67712  -0.66451  -0.66203  -0.65314  -0.64415
  Beta  occ. eigenvalues --   -0.63864  -0.63150  -0.60805  -0.59347  -0.58822
  Beta  occ. eigenvalues --   -0.58294  -0.57849  -0.56945  -0.56083  -0.55797
  Beta  occ. eigenvalues --   -0.54624  -0.54383  -0.53932  -0.53017  -0.52795
  Beta  occ. eigenvalues --   -0.52399  -0.51219  -0.51147  -0.50564  -0.50135
  Beta  occ. eigenvalues --   -0.49704  -0.49429  -0.49323  -0.49030  -0.48420
  Beta  occ. eigenvalues --   -0.48295  -0.47910  -0.47538  -0.47126  -0.46794
  Beta  occ. eigenvalues --   -0.46346  -0.46141  -0.45887  -0.45581  -0.45417
  Beta  occ. eigenvalues --   -0.45000  -0.44739  -0.44384  -0.44251  -0.44142
  Beta  occ. eigenvalues --   -0.44060  -0.43875  -0.43726  -0.43422  -0.43090
  Beta  occ. eigenvalues --   -0.43012  -0.42581  -0.42385  -0.42099  -0.41809
  Beta  occ. eigenvalues --   -0.41680  -0.41186  -0.41110  -0.40944  -0.40055
  Beta  occ. eigenvalues --   -0.39923  -0.39415  -0.38858  -0.38460  -0.38342
  Beta  occ. eigenvalues --   -0.38298  -0.38062  -0.37567  -0.37239  -0.36790
  Beta  occ. eigenvalues --   -0.36641  -0.36305  -0.35618  -0.34796  -0.34309
  Beta  occ. eigenvalues --   -0.34037  -0.33589  -0.33117  -0.33016  -0.31602
  Beta  occ. eigenvalues --   -0.30749  -0.30252  -0.29598  -0.28636  -0.27485
  Beta  occ. eigenvalues --   -0.26856  -0.26499  -0.26031  -0.25117  -0.23865
  Beta  occ. eigenvalues --   -0.22883  -0.22148
  Beta virt. eigenvalues --   -0.12769  -0.11470  -0.08800  -0.07025  -0.06247
  Beta virt. eigenvalues --   -0.05544  -0.04522  -0.03139  -0.02881  -0.00402
  Beta virt. eigenvalues --   -0.00202   0.00853   0.01676   0.02048   0.02850

 Mulliken charges and spin densities:
               1          2
     1  C   -0.382508   0.000014
     2  C    0.132315  -0.000093
     3  N   -0.199520  -0.001413
     4  C   -0.242156   0.001582
     5  C    0.011115   0.001655
     6  N   -0.044724  -0.042289
     7  Fe  -0.106076   1.840125
     8  C   -0.503128  -0.080185
     9  C   -0.511472  -0.104683
    10  C   -0.401883  -0.096652
    11  C   -0.490858  -0.033323
    12  N   -0.029565  -0.132519
    13  C    0.266105   0.013488
    14  C   -0.097453   0.027001
    15  C   -0.025583   0.000116
    16  C    0.204875   0.004714
    17  C   -0.401352  -0.001424
    18  C   -0.231666  -0.002560
    19  C   -0.199837   0.000650
    20  C    0.374708   0.000044
    21  O   -0.375255   0.000026
    22  O   -0.423413   0.000076
    23  N   -0.026527  -0.165912
    24  C    0.314148   0.042548
    25  C   -0.059023  -0.014813
    26  C    0.004522   0.022413
    27  C    0.265069  -0.019501
    28  C   -0.423795   0.000989
    29  C   -0.250539  -0.035567
    30  C   -0.335714   0.041581
    31  N   -0.037238  -0.062278
    32  C    0.263408   0.006515
    33  C   -0.080733  -0.030000
    34  C    0.001569   0.031909
    35  C    0.292290  -0.087289
    36  C   -0.407033   0.001630
    37  C   -0.277901   0.021868
    38  C   -0.348152  -0.019824
    39  N   -0.023406  -0.094224
    40  C    0.306697  -0.016587
    41  C   -0.027095   0.001597
    42  C   -0.081596  -0.007204
    43  C    0.211638  -0.023945
    44  C   -0.442968   0.000090
    45  C   -0.128447   0.000941
    46  C   -0.405255  -0.000931
    47  C    0.315731  -0.000079
    48  O   -0.340779  -0.000011
    49  O   -0.341223  -0.000194
    50  H    0.399157  -0.000036
    51  H    0.148383  -0.000009
    52  H    0.148685  -0.000343
    53  H    0.151549  -0.000261
    54  H    0.155073   0.000042
    55  H    0.209218   0.003575
    56  H    0.132881   0.001011
    57  H    0.121991   0.000075
    58  H    0.119652  -0.000079
    59  H    0.123483   0.000053
    60  H    0.394522  -0.000001
    61  H    0.162879  -0.000084
    62  H    0.156314   0.000189
    63  H    0.155065  -0.000263
    64  H    0.177611   0.004650
    65  H    0.163555  -0.000428
    66  H    0.148329  -0.000209
    67  H    0.170234  -0.000308
    68  H    0.148267  -0.000399
    69  H    0.154298  -0.000257
    70  H    0.164850  -0.001317
    71  H    0.136329   0.004520
    72  H    0.195034   0.002184
    73  H    0.146349  -0.000123
    74  H    0.160129   0.000148
    75  H    0.167316  -0.000251
    76  H    0.163005   0.000024
    77  H    0.162091   0.000030
    78  H    0.152969  -0.000081
    79  H    0.170969   0.000390
    80  H    0.197557   0.000514
    81  H    0.283914   0.000309
    82  H    0.190221   0.001435
    83  H    0.175666  -0.001728
    84  H    0.162678  -0.002071
    85  H    0.201412  -0.001229
    86  H    0.184257   0.001128
    87  H    0.183790   0.001125
 Sum of Mulliken charges =   1.00000   1.00000

 Dipole moment (field-independent basis, Debye):
    X=            -10.8392    Y=              1.2333    Z=              9.9705  Tot=             14.7791
 Quadrupole moment (field-independent basis, Debye-Ang):
   XX=           -275.7265   YY=           -191.9202   ZZ=           -243.5844
   XY=             -7.5343   XZ=             24.5978   YZ=            -10.9795

 Normal termination of Gaussian 16 at Wed Nov  9 11:36:30 2022.
