 Gaussian 16, Revision A.03,
 Gaussian 16:  ES64L-G16RevA.03 25-Dec-2016

 ----------------------------------------------------------------------
 # PBE1PBE/def2TZVP empiricaldispersion=GD3BJ int=(grid=ultrafine) geom
 =check pop=nbo
 ----------------------------------------------------------------------

 ---------
 1drm_II_Q
 ---------
 Structure from the checkpoint file:  "1drm_II_Q.chk"
 Charge =  0 Multiplicity = 5

                         Standard orientation:
 ---------------------------------------------------------------------
 Center     Atomic      Atomic             Coordinates (Angstroms)
 Number     Number       Type             X           Y           Z
 ---------------------------------------------------------------------
      1          6           0       -1.131239   -1.830485    5.439987
      2          6           0       -1.273583   -1.064428    4.143753
      3          7           0       -1.820839    0.199580    4.043630
      4          6           0       -0.879682   -1.385500    2.882889
      5          6           0       -1.739390    0.610183    2.760300
      6          7           0       -1.178207   -0.307977    1.990809
      7         26           0       -0.933636   -0.056462   -0.107600
      8          6           0        2.491177    0.681681    0.071878
      9          6           0       -0.361600   -3.437758   -0.512035
     10          6           0       -4.128773   -0.659191   -1.119583
     11          6           0       -1.592933    3.387985    0.096321
     12          7           0        0.675452   -1.196588   -0.177292
     13          6           0        2.070118   -0.674044   -0.092725
     14          6           0        2.925176   -1.797215   -0.260569
     15          6           0        2.106334   -2.920942   -0.409620
     16          6           0        0.762633   -2.537964   -0.356589
     17          6           0        2.532451   -4.422787   -0.663620
     18          6           0        4.447444   -1.616867   -0.498741
     19          6           0        5.162547   -2.596475    0.138973
     20          6           0        6.533866   -2.640906   -0.387884
     21          8           0        7.399573   -2.534376    0.550848
     22          8           0        6.748551   -2.807573   -1.646386
     23          7           0       -2.031406   -1.608491   -0.592476
     24          6           0       -1.583912   -3.032035   -0.678672
     25          6           0       -2.654949   -3.918092   -0.865341
     26          6           0       -3.740850   -3.206399   -1.063934
     27          6           0       -3.395806   -1.732125   -0.900453
     28          6           0       -2.582868   -5.446412   -0.887283
     29          6           0       -5.065573   -3.903276   -1.330823
     30          6           0       -6.280066   -3.089301   -1.814611
     31          7           0       -2.460926    1.035707   -0.426196
     32          6           0       -3.698136    0.638070   -0.879217
     33          6           0       -4.547130    1.813154   -1.082251
     34          6           0       -3.848928    2.860019   -0.791307
     35          6           0       -2.587351    2.437439   -0.381308
     36          6           0       -6.064878    1.754859   -1.607828
     37          6           0       -4.069877    4.422235   -0.990125
     38          6           0       -5.294211    5.112928   -0.361198
     39          7           0        0.021874    1.597653    0.078434
     40          6           0       -0.375527    3.018401    0.198626
     41          6           0        0.790581    3.923289    0.427248
     42          6           0        1.873808    3.181125    0.507274
     43          6           0        1.496624    1.795753    0.236006
     44          6           0        0.759487    5.375560    0.605862
     45          6           0        3.418827    3.486200    0.840954
     46          6           0        4.250171    3.731435   -0.470891
     47          6           0        5.540488    3.506291   -1.158741
     48          8           0        5.386745    3.776098   -2.345632
     49          8           0        6.159471    2.520293   -0.778444
     50          1           0        4.693090    3.344747   -2.849992
     51          1           0        3.576989    3.327486   -1.197906
     52          1           0        4.185541    4.797404   -0.537469
     53          1           0        3.834238    2.652684    1.367818
     54          1           0        3.477776    4.356629    1.460453
     55          1           0        3.536926    0.908103    0.078365
     56          1           0        4.646753   -1.663530   -1.548978
     57          1           0        4.750691   -0.661011   -0.125536
     58          1           0        4.689738   -3.542761   -0.021941
     59          1           0        5.192043   -2.388346    1.188121
     60          1           0        7.413546   -3.174813    1.265862
     61          1           0        1.936087   -4.834469   -1.450874
     62          1           0        3.564893   -4.458330   -0.942369
     63          1           0        2.384645   -4.991571    0.230549
     64          1           0       -0.175424   -4.491170   -0.488353
     65          1           0       -3.184335   -5.820364   -1.689341
     66          1           0       -1.567816   -5.753598   -1.029434
     67          1           0       -2.946049   -5.833976    0.041584
     68          1           0       -6.500534    0.816037   -1.336321
     69          1           0       -6.626665    2.550284   -1.164438
     70          1           0       -6.077864    1.859448   -2.672625
     71          1           0       -5.116793   -0.796598   -1.506670
     72          1           0       -1.879567    4.384970    0.358544
     73          1           0       -0.236362    5.684049    0.846733
     74          1           0        1.420434    5.651373    1.400832
     75          1           0        1.071657    5.853015   -0.299392
     76          1           0       -1.437730   -2.844680    5.290412
     77          1           0       -0.109242   -1.809678    5.756198
     78          1           0       -1.746037   -1.379076    6.190421
     79          1           0       -0.415438   -2.307076    2.599911
     80          1           0       -2.085548    1.559827    2.409229
     81          1           0       -2.213363    0.724909    4.798584
     82          1           0       -5.153998   -4.959251   -1.182506
     83          1           0       -7.148078   -3.592896   -2.185888
     84          1           0       -6.255890   -2.020151   -1.779473
     85          1           0       -3.367869    4.993481   -1.560882
     86          1           0       -6.276737    4.730734   -0.544147
     87          1           0       -5.162359    5.975019    0.258732
 ---------------------------------------------------------------------

 SCF Done:  E(UPBE1PBE) =  -3361.94241160     A.U. after   54 cycles

 Alpha virt. eigenvalues --    0.60989   0.61093   0.61229   0.61576   0.61897
 Alpha virt. eigenvalues --    0.62126   0.62350   0.62608   0.62640   0.63305
 Alpha virt. eigenvalues --    0.63627   0.63703   0.63984   0.64270   0.64642

  Beta  occ. eigenvalues -- -256.40337 -30.15075 -25.98395 -25.98292 -25.97361
  Beta  occ. eigenvalues --  -19.25661 -19.24818 -19.18878 -19.18797 -14.46636
  Beta  occ. eigenvalues --  -14.41133 -14.40050 -14.39911 -14.38946 -14.38816
  Beta  occ. eigenvalues --  -10.35613 -10.35429 -10.30338 -10.28359 -10.27268
  Beta  occ. eigenvalues --  -10.26465 -10.25973 -10.25921 -10.25808 -10.25676
  Beta  occ. eigenvalues --  -10.25550 -10.25151 -10.25062 -10.24933 -10.24863
  Beta  occ. eigenvalues --  -10.24729 -10.24420 -10.24207 -10.23968 -10.23920
  Beta  occ. eigenvalues --  -10.23501 -10.23032 -10.22865 -10.22817 -10.22563
  Beta  occ. eigenvalues --  -10.22465 -10.22363 -10.21909 -10.21713 -10.21642
  Beta  occ. eigenvalues --  -10.21465 -10.21442 -10.21195 -10.21064 -10.21007
  Beta  occ. eigenvalues --  -10.20799 -10.20536 -10.20336  -3.45795  -2.21833
  Beta  occ. eigenvalues --   -2.21809  -2.18102  -1.18334  -1.15196  -1.07074
  Beta  occ. eigenvalues --   -1.04362  -1.01668  -0.98416  -0.96314  -0.95214
  Beta  occ. eigenvalues --   -0.94085  -0.92163  -0.86178  -0.84821  -0.83990
  Beta  occ. eigenvalues --   -0.82768  -0.82740  -0.81793  -0.81053  -0.80642
  Beta  occ. eigenvalues --   -0.79425  -0.78674  -0.76625  -0.75346  -0.74450
  Beta  occ. eigenvalues --   -0.74360  -0.72928  -0.72260  -0.72029  -0.71051
  Beta  occ. eigenvalues --   -0.69865  -0.69450  -0.68972  -0.67494  -0.66805
  Beta  occ. eigenvalues --   -0.66082  -0.65284  -0.64314  -0.63595  -0.62677
  Beta  occ. eigenvalues --   -0.59783  -0.59201  -0.58181  -0.57248  -0.56416
  Beta  occ. eigenvalues --   -0.55610  -0.54822  -0.54416  -0.53369  -0.53071
  Beta  occ. eigenvalues --   -0.52762  -0.52307  -0.52032  -0.50942  -0.50375
  Beta  occ. eigenvalues --   -0.49320  -0.49221  -0.49055  -0.48889  -0.48675
  Beta  occ. eigenvalues --   -0.48481  -0.47916  -0.47533  -0.47124  -0.46355
  Beta  occ. eigenvalues --   -0.45846  -0.45720  -0.45383  -0.44973  -0.44804
  Beta  occ. eigenvalues --   -0.44668  -0.44276  -0.44217  -0.43930  -0.43823
  Beta  occ. eigenvalues --   -0.43361  -0.42996  -0.42570  -0.42299  -0.42123
  Beta  occ. eigenvalues --   -0.41954  -0.41494  -0.41232  -0.40875  -0.40756
  Beta  occ. eigenvalues --   -0.40258  -0.40036  -0.39759  -0.39567  -0.39141
  Beta  occ. eigenvalues --   -0.38971  -0.38413  -0.38370  -0.38083  -0.37730
  Beta  occ. eigenvalues --   -0.37526  -0.37391  -0.36926  -0.36273  -0.36193
  Beta  occ. eigenvalues --   -0.35890  -0.35642  -0.35100  -0.34632  -0.33879
  Beta  occ. eigenvalues --   -0.33630  -0.33316  -0.33110  -0.32941  -0.32888
  Beta  occ. eigenvalues --   -0.32240  -0.31467  -0.30284  -0.29362  -0.28255
  Beta  occ. eigenvalues --   -0.27445  -0.27143  -0.27064  -0.26608  -0.25490
  Beta  occ. eigenvalues --   -0.25211  -0.24090  -0.22873  -0.21408  -0.18579
  Beta  occ. eigenvalues --   -0.15039
  Beta virt. eigenvalues --   -0.10940  -0.08922  -0.06134  -0.05448  -0.04751
  Beta virt. eigenvalues --   -0.03906  -0.03675  -0.01877  -0.00844   0.00269
  Beta virt. eigenvalues --    0.00735   0.01618   0.02082   0.02615   0.02719

 Mulliken charges and spin densities:
               1          2
     1  C   -0.359804   0.001090
     2  C    0.146500   0.003579
     3  N   -0.218708   0.002270
     4  C   -0.210389   0.003575
     5  C    0.026639   0.005024
     6  N   -0.032365   0.053310
     7  Fe  -0.125634   2.796912
     8  C   -0.530773   0.047408
     9  C   -0.527807  -0.031875
    10  C   -0.411598   0.042009
    11  C   -0.589853  -0.009509
    12  N   -0.023257  -0.042118
    13  C    0.250648  -0.034331
    14  C   -0.084743   0.051695
    15  C   -0.021980  -0.018937
    16  C    0.172716   0.031404
    17  C   -0.402907   0.000559
    18  C   -0.260362  -0.004737
    19  C   -0.192627   0.000788
    20  C    0.372752  -0.000048
    21  O   -0.356081   0.000007
    22  O   -0.371945   0.000076
    23  N   -0.055911  -0.025603
    24  C    0.308905   0.019561
    25  C   -0.046636  -0.019618
    26  C    0.015809   0.028922
    27  C    0.246986  -0.038357
    28  C   -0.416162   0.001171
    29  C   -0.218455  -0.046432
    30  C   -0.292303   0.060090
    31  N   -0.020618  -0.050372
    32  C    0.263794  -0.034822
    33  C   -0.090509   0.090847
    34  C    0.020084  -0.032739
    35  C    0.271056   0.042463
    36  C   -0.384902  -0.006840
    37  C   -0.300328   0.394460
    38  C   -0.357210   0.841369
    39  N   -0.045024  -0.014684
    40  C    0.376420   0.019874
    41  C   -0.036700  -0.028060
    42  C   -0.081995   0.030236
    43  C    0.192075  -0.055525
    44  C   -0.416994   0.001634
    45  C   -0.128213  -0.002423
    46  C   -0.379054   0.000498
    47  C    0.295851   0.000458
    48  O   -0.319811   0.000050
    49  O   -0.294460   0.000080
    50  H    0.363442   0.000072
    51  H    0.116990   0.000195
    52  H    0.127397  -0.000007
    53  H    0.141157   0.000489
    54  H    0.128841   0.000130
    55  H    0.176781  -0.002191
    56  H    0.135971   0.002114
    57  H    0.112342   0.000278
    58  H    0.098887  -0.000100
    59  H    0.098220   0.000093
    60  H    0.352285   0.000001
    61  H    0.142165  -0.000504
    62  H    0.140299  -0.000213
    63  H    0.130674  -0.000439
    64  H    0.122857   0.000850
    65  H    0.143791  -0.000303
    66  H    0.127426  -0.000294
    67  H    0.150973  -0.000502
    68  H    0.117495   0.000547
    69  H    0.127792  -0.000732
    70  H    0.140069   0.004033
    71  H    0.064709  -0.002510
    72  H    0.155879  -0.002643
    73  H    0.129396  -0.000195
    74  H    0.132150  -0.000588
    75  H    0.146748  -0.001430
    76  H    0.151964   0.000009
    77  H    0.151215   0.000020
    78  H    0.124708   0.000141
    79  H    0.145029   0.000096
    80  H    0.178895   0.000459
    81  H    0.236259   0.001489
    82  H    0.148031   0.001877
    83  H    0.137019  -0.002709
    84  H    0.133900  -0.002567
    85  H    0.155634  -0.015739
    86  H    0.126725  -0.023795
    87  H    0.131766  -0.029818
 Sum of Mulliken charges =  -0.00000   4.00000

 Dipole moment (field-independent basis, Debye):
    X=             -2.8060    Y=             -2.2033    Z=              9.5794  Tot=             10.2222
 Quadrupole moment (field-independent basis, Debye-Ang):
   XX=           -342.3710   YY=           -264.4378   ZZ=           -262.3938
   XY=             11.9343   XZ=             13.3473   YZ=             -9.7527

 Summary of Natural Population Analysis:

                                       Natural Population
                Natural  -----------------------------------------------
    Atom  No    Charge         Core      Valence    Rydberg      Total
 -----------------------------------------------------------------------
      C    1   -0.31873      0.99969     2.31585    0.00319     3.31873
      C    2    0.05296      0.99953     1.93835    0.00916     2.94704
      N    3   -0.24409      0.99970     2.73448    0.00992     3.74409
      C    4   -0.03774      0.99944     2.02960    0.00870     3.03774
      C    5    0.10555      0.99969     1.88564    0.00912     2.89445
      N    6   -0.15932      0.99972     2.64112    0.01848     3.65932
     Fe    7    1.66593      8.99297     2.32560    0.01550    11.33407
      C    8   -0.09892      0.99955     2.09405    0.00533     3.09892
      C    9   -0.13861      0.99936     2.13045    0.00880     3.13861
      C   10   -0.11961      0.99937     2.11096    0.00928     3.11961
      C   11   -0.14129      0.99926     2.13235    0.00967     3.14129
      N   12   -0.22538      0.99968     2.70672    0.01897     3.72538
      C   13    0.04146      0.99948     1.94908    0.00999     2.95854
      C   14    0.01041      0.99942     1.98066    0.00951     2.98959
      C   15   -0.03573      0.99940     2.02816    0.00817     3.03573
      C   16    0.09216      0.99950     1.89806    0.01029     2.90784
      C   17   -0.31591      0.99969     2.31273    0.00349     3.31591
      C   18   -0.20958      0.99956     2.20155    0.00847     3.20958
      C   19   -0.26253      0.99952     2.25256    0.01045     3.26253
      C   20    0.39314      0.99967     1.59101    0.01618     2.60686
      O   21   -0.33935      0.99981     3.32534    0.01420     4.33935
      O   22   -0.28439      0.99991     3.27405    0.01044     4.28439
      N   23   -0.21794      0.99972     2.70002    0.01820     3.71794
      C   24    0.08078      0.99927     1.90994    0.01001     2.91922
      C   25   -0.01335      0.99928     2.00490    0.00918     3.01335
      C   26   -0.02351      0.99928     2.01373    0.01049     3.02351
      C   27    0.07626      0.99944     1.91406    0.01024     2.92374
      C   28   -0.31666      0.99970     2.31311    0.00386     3.31666
      C   29   -0.11685      0.99971     2.11083    0.00631     3.11685
      C   30   -0.15913      0.99975     2.15427    0.00511     3.15913
      N   31   -0.22474      0.99965     2.70639    0.01869     3.72474
      C   32    0.07139      0.99954     1.91857    0.01049     2.92861
      C   33    0.01724      0.99918     1.97448    0.00910     2.98276
      C   34   -0.05046      0.99910     2.03970    0.01166     3.05046
      C   35    0.12667      0.99948     1.86377    0.01008     2.87333
      C   36   -0.31306      0.99969     2.30991    0.00346     3.31306
      C   37    0.05905      0.99974     1.93355    0.00766     2.94095
      C   38    0.18778      0.99975     1.80670    0.00577     2.81222
      N   39   -0.22302      0.99971     2.70564    0.01766     3.72302
      C   40    0.09407      0.99928     1.89612    0.01053     2.90593
      C   41   -0.03326      0.99935     2.02485    0.00906     3.03326
      C   42   -0.00059      0.99924     1.99188    0.00948     3.00059
      C   43    0.05315      0.99958     1.93752    0.00975     2.94685
      C   44   -0.31742      0.99969     2.31087    0.00686     3.31742
      C   45   -0.20335      0.99963     2.19695    0.00677     3.20335
      C   46   -0.26057      0.99952     2.24973    0.01131     3.26057
      C   47    0.38103      0.99953     1.59999    0.01945     2.61897
      O   48   -0.34301      0.99976     3.32756    0.01569     4.34301
      O   49   -0.26446      0.99988     3.25220    0.01238     4.26446
      H   50    0.26204      0.00000     0.23690    0.00106     0.23796
      H   51    0.10735      0.00000     0.39137    0.00128     0.39265
      H   52    0.10540      0.00000     0.39382    0.00078     0.39460
      H   53    0.11303      0.00000     0.38590    0.00107     0.38697
      H   54    0.10804      0.00000     0.39124    0.00072     0.39196
      H   55    0.11280      0.00000     0.38597    0.00122     0.38720
      H   56    0.12475      0.00000     0.37443    0.00083     0.37525
      H   57    0.10733      0.00000     0.39176    0.00091     0.39267
      H   58    0.11830      0.00000     0.38089    0.00081     0.38170
      H   59    0.10321      0.00000     0.39612    0.00067     0.39679
      H   60    0.25574      0.00000     0.24324    0.00102     0.24426
      H   61    0.11062      0.00000     0.38861    0.00077     0.38938
      H   62    0.10620      0.00000     0.39308    0.00072     0.39380
      H   63    0.10624      0.00000     0.39295    0.00081     0.39376
      H   64    0.10885      0.00000     0.38973    0.00142     0.39115
      H   65    0.11332      0.00000     0.38589    0.00079     0.38668
      H   66    0.10904      0.00000     0.39030    0.00066     0.39096
      H   67    0.11218      0.00000     0.38706    0.00077     0.38782
      H   68    0.10440      0.00000     0.39498    0.00062     0.39560
      H   69    0.10960      0.00000     0.38949    0.00091     0.39040
      H   70    0.11068      0.00000     0.38855    0.00077     0.38932
      H   71    0.10650      0.00000     0.39205    0.00145     0.39350
      H   72    0.11946      0.00000     0.37906    0.00148     0.38054
      H   73    0.11046      0.00000     0.38906    0.00048     0.38954
      H   74    0.11155      0.00000     0.38773    0.00073     0.38845
      H   75    0.11319      0.00000     0.38599    0.00082     0.38681
      H   76    0.11790      0.00000     0.38157    0.00053     0.38210
      H   77    0.11567      0.00000     0.38370    0.00062     0.38433
      H   78    0.10909      0.00000     0.39030    0.00061     0.39091
      H   79    0.11390      0.00000     0.38544    0.00067     0.38610
      H   80    0.11345      0.00000     0.38565    0.00090     0.38655
      H   81    0.20946      0.00000     0.28971    0.00084     0.29054
      H   82    0.10559      0.00000     0.39353    0.00088     0.39441
      H   83    0.09747      0.00000     0.40187    0.00066     0.40253
      H   84    0.08980      0.00000     0.40942    0.00078     0.41020
      H   85    0.09754      0.00000     0.40152    0.00094     0.40246
      H   86    0.08009      0.00000     0.41887    0.00104     0.41991
      H   87    0.08331      0.00000     0.41594    0.00075     0.41669
 =======================================================================
   * Total *    2.00000     56.97134   123.48932    0.53934   181.00000

 Normal termination of Gaussian 16 at Sun Aug 28 08:03:13 2022.
