 Gaussian 16, Revision A.03,
 Gaussian 16:  ES64L-G16RevA.03 25-Dec-2016

 ---------------------------------------------------------------------
 # polar def2tzvp empiricaldispersion=gd3bj int=grid=ultrafine pbe1pbe
 ---------------------------------------------------------------------

 ---------
 1drm_II_S
 ---------
 Symbolic Z-matrix:
 Charge =  0 Multiplicity = 1

                         Standard orientation:
 ---------------------------------------------------------------------
 Center     Atomic      Atomic             Coordinates (Angstroms)
 Number     Number       Type             X           Y           Z
 ---------------------------------------------------------------------
      1          6           0       -1.131239   -1.830485    5.439987
      2          6           0       -1.273583   -1.064428    4.143753
      3          7           0       -1.820839    0.199580    4.043630
      4          6           0       -0.879682   -1.385500    2.882889
      5          6           0       -1.739390    0.610183    2.760300
      6          7           0       -1.178207   -0.307977    1.990809
      7         26           0       -0.933636   -0.056462   -0.107600
      8          6           0        2.491177    0.681681    0.071878
      9          6           0       -0.361600   -3.437758   -0.512035
     10          6           0       -4.128773   -0.659191   -1.119583
     11          6           0       -1.592933    3.387985    0.096321
     12          7           0        0.675452   -1.196588   -0.177292
     13          6           0        2.070118   -0.674044   -0.092725
     14          6           0        2.925176   -1.797215   -0.260569
     15          6           0        2.106334   -2.920942   -0.409620
     16          6           0        0.762633   -2.537964   -0.356589
     17          6           0        2.532451   -4.422787   -0.663620
     18          6           0        4.447444   -1.616867   -0.498741
     19          6           0        5.162547   -2.596475    0.138973
     20          6           0        6.533866   -2.640906   -0.387884
     21          8           0        7.399573   -2.534376    0.550848
     22          8           0        6.748551   -2.807573   -1.646386
     23          7           0       -2.031406   -1.608491   -0.592476
     24          6           0       -1.583912   -3.032035   -0.678672
     25          6           0       -2.654949   -3.918092   -0.865341
     26          6           0       -3.740850   -3.206399   -1.063934
     27          6           0       -3.395806   -1.732125   -0.900453
     28          6           0       -2.582868   -5.446412   -0.887283
     29          6           0       -5.065573   -3.903276   -1.330823
     30          6           0       -6.280066   -3.089301   -1.814611
     31          7           0       -2.460926    1.035707   -0.426196
     32          6           0       -3.698136    0.638070   -0.879217
     33          6           0       -4.547130    1.813154   -1.082251
     34          6           0       -3.848928    2.860019   -0.791307
     35          6           0       -2.587351    2.437439   -0.381308
     36          6           0       -6.064878    1.754859   -1.607828
     37          6           0       -4.069877    4.422235   -0.990125
     38          6           0       -5.294211    5.112928   -0.361198
     39          7           0        0.021874    1.597653    0.078434
     40          6           0       -0.375527    3.018401    0.198626
     41          6           0        0.790581    3.923289    0.427248
     42          6           0        1.873808    3.181125    0.507274
     43          6           0        1.496624    1.795753    0.236006
     44          6           0        0.759487    5.375560    0.605862
     45          6           0        3.418827    3.486200    0.840954
     46          6           0        4.250171    3.731435   -0.470891
     47          6           0        5.540488    3.506291   -1.158741
     48          8           0        5.386745    3.776098   -2.345632
     49          8           0        6.159471    2.520293   -0.778444
     50          1           0        4.693090    3.344747   -2.849992
     51          1           0        3.576989    3.327486   -1.197906
     52          1           0        4.185541    4.797404   -0.537469
     53          1           0        3.834238    2.652684    1.367818
     54          1           0        3.477776    4.356629    1.460453
     55          1           0        3.536926    0.908103    0.078365
     56          1           0        4.646753   -1.663530   -1.548978
     57          1           0        4.750691   -0.661011   -0.125536
     58          1           0        4.689738   -3.542761   -0.021941
     59          1           0        5.192043   -2.388346    1.188121
     60          1           0        7.413546   -3.174813    1.265862
     61          1           0        1.936087   -4.834469   -1.450874
     62          1           0        3.564893   -4.458330   -0.942369
     63          1           0        2.384645   -4.991571    0.230549
     64          1           0       -0.175424   -4.491170   -0.488353
     65          1           0       -3.184335   -5.820364   -1.689341
     66          1           0       -1.567816   -5.753598   -1.029434
     67          1           0       -2.946049   -5.833976    0.041584
     68          1           0       -6.500534    0.816037   -1.336321
     69          1           0       -6.626665    2.550284   -1.164438
     70          1           0       -6.077864    1.859448   -2.672625
     71          1           0       -5.116793   -0.796598   -1.506670
     72          1           0       -1.879567    4.384970    0.358544
     73          1           0       -0.236362    5.684049    0.846733
     74          1           0        1.420434    5.651373    1.400832
     75          1           0        1.071657    5.853015   -0.299392
     76          1           0       -1.437730   -2.844680    5.290412
     77          1           0       -0.109242   -1.809678    5.756198
     78          1           0       -1.746037   -1.379076    6.190421
     79          1           0       -0.415438   -2.307076    2.599911
     80          1           0       -2.085548    1.559827    2.409229
     81          1           0       -2.213363    0.724909    4.798584
     82          1           0       -5.153998   -4.959251   -1.182506
     83          1           0       -7.148078   -3.592896   -2.185888
     84          1           0       -6.255890   -2.020151   -1.779473
     85          1           0       -3.367869    4.993481   -1.560882
     86          1           0       -6.276737    4.730734   -0.544147
     87          1           0       -5.162359    5.975019    0.258732
 ---------------------------------------------------------------------

 SCF Done:  E(RPBE1PBE) =  -3361.95735841     A.U. after   26 cycles

 The electronic state is 1-A.
 Alpha  occ. eigenvalues -- -256.32604 -30.09563 -25.92491 -25.92069 -25.91787
 Alpha  occ. eigenvalues --  -19.25329 -19.24526 -19.18519 -19.18482 -14.45799
 Alpha  occ. eigenvalues --  -14.41139 -14.39292 -14.38527 -14.38525 -14.37276
 Alpha  occ. eigenvalues --  -10.35241 -10.35088 -10.29314 -10.27586 -10.27061
 Alpha  occ. eigenvalues --  -10.26614 -10.26077 -10.25131 -10.25048 -10.24880
 Alpha  occ. eigenvalues --  -10.24841 -10.24695 -10.24654 -10.24457 -10.24323
 Alpha  occ. eigenvalues --  -10.24208 -10.24142 -10.24096 -10.24015 -10.23768
 Alpha  occ. eigenvalues --  -10.23202 -10.23027 -10.22834 -10.22631 -10.22135
 Alpha  occ. eigenvalues --  -10.22000 -10.21984 -10.21979 -10.21850 -10.21791
 Alpha  occ. eigenvalues --  -10.21669 -10.21618 -10.21528 -10.21491 -10.21324
 Alpha  occ. eigenvalues --  -10.20942 -10.20658 -10.20560  -3.44323  -2.20566
 Alpha  occ. eigenvalues --   -2.19712  -2.19235  -1.18036  -1.14859  -1.06287
 Alpha  occ. eigenvalues --   -1.04049  -1.01314  -0.97633  -0.95457  -0.94385
 Alpha  occ. eigenvalues --   -0.93227  -0.91393  -0.85653  -0.84388  -0.83376
 Alpha  occ. eigenvalues --   -0.82188  -0.82051  -0.81487  -0.81224  -0.80274
 Alpha  occ. eigenvalues --   -0.79007  -0.77995  -0.76274  -0.75120  -0.74664
 Alpha  occ. eigenvalues --   -0.73775  -0.73655  -0.72210  -0.71735  -0.71468
 Alpha  occ. eigenvalues --   -0.70563  -0.69028  -0.68702  -0.67054  -0.66522
 Alpha  occ. eigenvalues --   -0.65294  -0.64809  -0.63860  -0.62802  -0.62516
 Alpha  occ. eigenvalues --   -0.61729  -0.59315  -0.57354  -0.56785  -0.56202
 Alpha  occ. eigenvalues --   -0.55280  -0.54559  -0.53926  -0.53000  -0.52666
 Alpha  occ. eigenvalues --   -0.52155  -0.51969  -0.51658  -0.50647  -0.49929
 Alpha  occ. eigenvalues --   -0.49159  -0.48543  -0.48481  -0.48379  -0.48215
 Alpha  occ. eigenvalues --   -0.48131  -0.47485  -0.47023  -0.46687  -0.45938
 Alpha  occ. eigenvalues --   -0.45382  -0.45263  -0.44983  -0.44827  -0.44329
 Alpha  occ. eigenvalues --   -0.44171  -0.43989  -0.43915  -0.43711  -0.43541
 Alpha  occ. eigenvalues --   -0.43369  -0.43117  -0.42633  -0.42468  -0.42065
 Alpha  occ. eigenvalues --   -0.41792  -0.41518  -0.41027  -0.40950  -0.40302
 Alpha  occ. eigenvalues --   -0.40128  -0.39787  -0.39556  -0.39484  -0.38733
 Alpha  occ. eigenvalues --   -0.38634  -0.38456  -0.38176  -0.37862  -0.37447
 Alpha  occ. eigenvalues --   -0.37157  -0.36731  -0.36369  -0.35829  -0.35408
 Alpha  occ. eigenvalues --   -0.35383  -0.35175  -0.34678  -0.34009  -0.33475
 Alpha  occ. eigenvalues --   -0.32918  -0.32809  -0.32605  -0.32470  -0.32043
 Alpha  occ. eigenvalues --   -0.31716  -0.30259  -0.29857  -0.29009  -0.27936
 Alpha  occ. eigenvalues --   -0.27851  -0.26999  -0.26789  -0.26321  -0.25199
 Alpha  occ. eigenvalues --   -0.24107  -0.23146  -0.21896  -0.21268  -0.20456
 Alpha  occ. eigenvalues --   -0.19335  -0.19065  -0.17828
 Alpha virt. eigenvalues --   -0.08441  -0.06945  -0.06364  -0.05146  -0.03576
 Alpha virt. eigenvalues --   -0.02681  -0.01524   0.00395   0.01291   0.02065
 Alpha virt. eigenvalues --    0.02937   0.03250   0.03423   0.03830   0.04283

 Mulliken charges:
               1
     1  C   -0.360568
     2  C    0.148980
     3  N   -0.222035
     4  C   -0.213823
     5  C    0.022680
     6  N   -0.009608
     7  Fe  -0.178632
     8  C   -0.539139
     9  C   -0.521754
    10  C   -0.391858
    11  C   -0.556666
    12  N   -0.018068
    13  C    0.257287
    14  C   -0.094383
    15  C   -0.016736
    16  C    0.167916
    17  C   -0.403015
    18  C   -0.259894
    19  C   -0.192238
    20  C    0.373026
    21  O   -0.356673
    22  O   -0.373198
    23  N   -0.041573
    24  C    0.304173
    25  C   -0.045567
    26  C    0.008008
    27  C    0.232752
    28  C   -0.416846
    29  C   -0.213574
    30  C   -0.300466
    31  N   -0.025185
    32  C    0.265145
    33  C   -0.079118
    34  C    0.017822
    35  C    0.243741
    36  C   -0.384769
    37  C   -0.261007
    38  C   -0.321966
    39  N   -0.036367
    40  C    0.338287
    41  C   -0.034003
    42  C   -0.091054
    43  C    0.199611
    44  C   -0.419544
    45  C   -0.130951
    46  C   -0.377559
    47  C    0.295051
    48  O   -0.320738
    49  O   -0.294397
    50  H    0.363117
    51  H    0.116513
    52  H    0.125716
    53  H    0.140224
    54  H    0.126517
    55  H    0.176430
    56  H    0.133868
    57  H    0.111449
    58  H    0.098224
    59  H    0.097512
    60  H    0.351903
    61  H    0.141349
    62  H    0.139955
    63  H    0.130466
    64  H    0.122455
    65  H    0.142290
    66  H    0.125747
    67  H    0.149806
    68  H    0.123006
    69  H    0.121859
    70  H    0.144010
    71  H    0.065203
    72  H    0.144395
    73  H    0.122476
    74  H    0.132281
    75  H    0.145189
    76  H    0.150614
    77  H    0.149832
    78  H    0.122673
    79  H    0.141806
    80  H    0.170907
    81  H    0.233470
    82  H    0.146474
    83  H    0.134899
    84  H    0.129046
    85  H    0.167383
    86  H    0.144258
    87  H    0.145165
 Sum of Mulliken charges =  -0.00000

 Dipole moment (field-independent basis, Debye):
    X=             -5.1203    Y=              0.2850    Z=              8.7597  Tot=             10.1505
 Quadrupole moment (field-independent basis, Debye-Ang):
   XX=           -332.1760   YY=           -254.3367   ZZ=           -262.7052
   XY=             -3.1137   XZ=             15.4535   YZ=            -12.0962

  Exact polarizability: 845.388 -26.695 750.993  59.987  29.078 374.169
 Approx polarizability:1473.819 -72.5381350.264 134.608  76.654 608.601

 Normal termination of Gaussian 16 at Fri Aug 26 14:18:38 2022.
