 Gaussian 16, Revision A.03,
 Gaussian 16:  ES64L-G16RevA.03 25-Dec-2016

 ---------------------------------------------------------------------
 # polar def2tzvp empiricaldispersion=gd3bj int=grid=ultrafine pbe1pbe
 ---------------------------------------------------------------------

 ---------
 1ebt_II_S
 ---------
 Symbolic Z-matrix:
 Charge =  0 Multiplicity = 1

                         Standard orientation:
 ---------------------------------------------------------------------
 Center     Atomic      Atomic             Coordinates (Angstroms)
 Number     Number       Type             X           Y           Z
 ---------------------------------------------------------------------
      1          6           0       -1.719666    0.749413    5.201262
      2          6           0       -1.350137    0.172314    3.843435
      3          7           0       -0.851877   -1.119933    3.711738
      4          6           0       -1.381084    0.777315    2.582352
      5          6           0       -0.581578   -1.255669    2.369426
      6          7           0       -0.920673   -0.159083    1.712654
      7          6           0       -0.724808    0.527829   -2.907578
      8          7           0       -0.519451   -0.746314   -2.995834
      9         26           0       -0.761399   -0.020771   -0.426811
     10          6           0        2.526595   -0.621362   -0.204143
     11          6           0       -1.360303   -3.321103   -1.127825
     12          6           0       -4.114177    0.478387   -0.350188
     13          6           0       -0.236191    3.352273   -0.181394
     14          7           0        0.267109   -1.640626   -0.590681
     15          6           0        1.663995   -1.691748   -0.364607
     16          6           0        2.095322   -3.048907   -0.451256
     17          6           0        1.046931   -3.799444   -0.708588
     18          6           0       -0.093615   -2.942664   -0.795155
     19          6           0        1.014553   -5.324401   -0.899695
     20          6           0        3.540073   -3.541708   -0.281667
     21          6           0        3.808155   -4.025997    1.141643
     22          6           0        3.981780   -2.878720    2.107700
     23          8           0        4.972742   -2.127971    1.981128
     24          8           0        3.021938   -2.598352    2.837041
     25          7           0       -2.436523   -1.198209   -0.651697
     26          6           0       -2.426476   -2.479874   -1.069534
     27          6           0       -3.777180   -2.934264   -1.298749
     28          6           0       -4.585381   -1.911841   -1.054954
     29          6           0       -3.734432   -0.789324   -0.695123
     30          6           0       -4.036872   -4.383158   -1.763129
     31          6           0       -6.128625   -1.865494   -1.179118
     32          6           0       -6.771571   -1.035315   -0.379847
     33          7           0       -1.866845    1.550238   -0.256047
     34          6           0       -3.268749    1.581697   -0.273992
     35          6           0       -3.710078    2.939330   -0.210467
     36          6           0       -2.643728    3.719326   -0.183570
     37          6           0       -1.517084    2.881902   -0.196543
     38          6           0       -5.186643    3.396044   -0.220825
     39          6           0       -2.549170    5.272838   -0.085066
     40          6           0       -3.478957    5.965133    0.616926
     41          7           0        0.813976    1.183536   -0.209170
     42          6           0        0.853995    2.525630   -0.176130
     43          6           0        2.261800    2.959880   -0.142712
     44          6           0        3.031456    1.868106   -0.119142
     45          6           0        2.147385    0.706741   -0.218689
     46          6           0        2.642658    4.452183   -0.055309
     47          6           0        4.560365    1.785063   -0.098766
     48          6           0        5.182722    2.134431   -1.480446
     49          6           0        6.692821    2.229888   -1.524340
     50          8           0        7.303734    1.143229   -1.644333
     51          8           0        7.217675    3.371409   -1.364098
     52          1           0       -2.439329    1.530753    5.072840
     53          1           0       -2.136105   -0.021684    5.815174
     54          1           0       -0.843530    1.145164    5.671014
     55          1           0       -1.701149    1.771733    2.350858
     56          1           0       -0.719465   -1.799760    4.433057
     57          1           0       -0.155830   -2.127983    1.919196
     58          1           0       -0.894672    1.581735   -2.834578
     59          1           0        8.204975    1.133202   -1.974884
     60          1           0        4.876681    1.386139   -2.181373
     61          1           0        4.781134    3.074137   -1.797588
     62          1           0        4.935611    2.468517    0.634024
     63          1           0        4.850676    0.791343    0.171681
     64          1           0        3.564033   -0.838763   -0.058000
     65          1           0        2.985695   -4.629897    1.463768
     66          1           0        4.697975   -4.620230    1.144548
     67          1           0        4.210956   -2.739830   -0.509279
     68          1           0        3.715779   -4.347726   -0.963108
     69          1           0        0.393460   -5.565837   -1.736865
     70          1           0        2.007060   -5.682815   -1.076807
     71          1           0        0.620601   -5.786012   -0.018436
     72          1           0       -1.523049   -4.328325   -1.450188
     73          1           0       -4.513331   -4.370675   -2.721112
     74          1           0       -3.106615   -4.907051   -1.834254
     75          1           0       -4.670696   -4.876167   -1.055945
     76          1           0       -6.234367   -0.485359    0.364371
     77          1           0       -7.830100   -0.912131   -0.475988
     78          1           0       -6.650740   -2.479975   -1.882473
     79          1           0       -5.147205    0.635271   -0.119667
     80          1           0       -5.264841    4.338929   -0.720578
     81          1           0       -5.781056    2.669680   -0.734602
     82          1           0       -5.536225    3.495697    0.785536
     83          1           0       -0.078025    4.410487   -0.173305
     84          1           0        1.836384    5.000866    0.384883
     85          1           0        3.519743    4.561711    0.547704
     86          1           0        2.836020    4.829075   -1.037889
     87          1           0       -1.750178    5.792127   -0.571738
     88          1           0       -3.850596    6.895165    0.240329
     89          1           0       -3.841432    5.581703    1.547783
     90          1           0        4.854792   -1.175320    1.969130
 ---------------------------------------------------------------------

 SCF Done:  E(RPBE1PBE) =  -3455.60173312     A.U. after   26 cycles

 The electronic state is 1-A.
 Alpha  occ. eigenvalues -- -256.32254 -30.09046 -25.92009 -25.91534 -25.91309
 Alpha  occ. eigenvalues --  -19.27736 -19.26485 -19.17973 -19.17872 -14.44823
 Alpha  occ. eigenvalues --  -14.43817 -14.39447 -14.37521 -14.37301 -14.37171
 Alpha  occ. eigenvalues --  -14.36547 -10.35689 -10.35090 -10.30439 -10.28011
 Alpha  occ. eigenvalues --  -10.26789 -10.24742 -10.24376 -10.24213 -10.24056
 Alpha  occ. eigenvalues --  -10.24025 -10.23918 -10.23813 -10.23790 -10.23658
 Alpha  occ. eigenvalues --  -10.23494 -10.23387 -10.23199 -10.23140 -10.23081
 Alpha  occ. eigenvalues --  -10.22903 -10.22831 -10.22179 -10.22177 -10.22087
 Alpha  occ. eigenvalues --  -10.22081 -10.21840 -10.21615 -10.21586 -10.21528
 Alpha  occ. eigenvalues --  -10.21448 -10.21291 -10.21226 -10.21188 -10.21125
 Alpha  occ. eigenvalues --  -10.21082 -10.20996 -10.20822 -10.20661 -10.20659
 Alpha  occ. eigenvalues --   -3.43742  -2.20010  -2.19082  -2.18666  -1.17657
 Alpha  occ. eigenvalues --   -1.17400  -1.04742  -1.03137  -1.02081  -0.98220
 Alpha  occ. eigenvalues --   -0.97310  -0.96737  -0.95856  -0.91088  -0.89631
 Alpha  occ. eigenvalues --   -0.84493  -0.83907  -0.83225  -0.82338  -0.82050
 Alpha  occ. eigenvalues --   -0.81104  -0.80905  -0.80036  -0.79427  -0.79035
 Alpha  occ. eigenvalues --   -0.77613  -0.76806  -0.75804  -0.74401  -0.73125
 Alpha  occ. eigenvalues --   -0.72053  -0.71941  -0.71297  -0.70486  -0.70208
 Alpha  occ. eigenvalues --   -0.69017  -0.66326  -0.65978  -0.65214  -0.65119
 Alpha  occ. eigenvalues --   -0.64703  -0.62291  -0.61147  -0.60867  -0.60419
 Alpha  occ. eigenvalues --   -0.59188  -0.57899  -0.55940  -0.55753  -0.55443
 Alpha  occ. eigenvalues --   -0.55001  -0.53716  -0.52972  -0.52761  -0.52009
 Alpha  occ. eigenvalues --   -0.51468  -0.51237  -0.50922  -0.50688  -0.49467
 Alpha  occ. eigenvalues --   -0.49353  -0.49005  -0.48488  -0.48306  -0.48181
 Alpha  occ. eigenvalues --   -0.47386  -0.47051  -0.46373  -0.46155  -0.45715
 Alpha  occ. eigenvalues --   -0.45446  -0.44792  -0.44663  -0.44236  -0.44054
 Alpha  occ. eigenvalues --   -0.43857  -0.43646  -0.43484  -0.43077  -0.42803
 Alpha  occ. eigenvalues --   -0.42657  -0.42578  -0.42112  -0.41992  -0.41762
 Alpha  occ. eigenvalues --   -0.41330  -0.41237  -0.41119  -0.40972  -0.40707
 Alpha  occ. eigenvalues --   -0.40411  -0.40105  -0.39826  -0.39502  -0.39148
 Alpha  occ. eigenvalues --   -0.39138  -0.38894  -0.38518  -0.38173  -0.37874
 Alpha  occ. eigenvalues --   -0.37778  -0.37440  -0.37202  -0.36654  -0.36531
 Alpha  occ. eigenvalues --   -0.36035  -0.35193  -0.34738  -0.34469  -0.34371
 Alpha  occ. eigenvalues --   -0.33735  -0.33408  -0.33102  -0.32729  -0.32597
 Alpha  occ. eigenvalues --   -0.32055  -0.31834  -0.31450  -0.30116  -0.29353
 Alpha  occ. eigenvalues --   -0.28473  -0.28044  -0.27793  -0.27572  -0.27424
 Alpha  occ. eigenvalues --   -0.25350  -0.25333  -0.23860  -0.23422  -0.23068
 Alpha  occ. eigenvalues --   -0.21003  -0.19860  -0.19304  -0.19200  -0.18528
 Alpha virt. eigenvalues --   -0.07188  -0.06597  -0.03162  -0.02877  -0.01973
 Alpha virt. eigenvalues --   -0.01396  -0.00806  -0.00104   0.00439   0.01693
 Alpha virt. eigenvalues --    0.01874   0.02422   0.03042   0.03289   0.04448

 Mulliken charges:
               1
     1  C   -0.385608
     2  C    0.124347
     3  N   -0.222145
     4  C   -0.158024
     5  C    0.020914
     6  N   -0.016020
     7  C   -0.060552
     8  N   -0.135306
     9  Fe  -0.375318
    10  C   -0.442203
    11  C   -0.426190
    12  C   -0.352647
    13  C   -0.487298
    14  N   -0.000060
    15  C    0.263297
    16  C    0.003991
    17  C   -0.063320
    18  C    0.225121
    19  C   -0.410025
    20  C   -0.305240
    21  C   -0.089822
    22  C    0.242294
    23  O   -0.341059
    24  O   -0.363096
    25  N   -0.049228
    26  C    0.322382
    27  C   -0.103734
    28  C    0.028778
    29  C    0.249605
    30  C   -0.377627
    31  C   -0.252515
    32  C   -0.237584
    33  N    0.043452
    34  C    0.123112
    35  C   -0.003686
    36  C    0.001646
    37  C    0.222986
    38  C   -0.387369
    39  C   -0.242234
    40  C   -0.288452
    41  N    0.025872
    42  C    0.266679
    43  C   -0.070249
    44  C   -0.037805
    45  C    0.276400
    46  C   -0.400936
    47  C   -0.352913
    48  C   -0.134168
    49  C    0.271256
    50  O   -0.318639
    51  O   -0.389570
    52  H    0.143235
    53  H    0.125221
    54  H    0.145256
    55  H    0.152650
    56  H    0.243136
    57  H    0.178297
    58  H    0.239171
    59  H    0.344994
    60  H    0.122507
    61  H    0.130347
    62  H    0.137615
    63  H    0.078101
    64  H    0.058314
    65  H    0.108295
    66  H    0.111250
    67  H    0.137904
    68  H    0.133869
    69  H    0.136332
    70  H    0.120623
    71  H    0.144192
    72  H    0.073442
    73  H    0.134751
    74  H    0.117547
    75  H    0.137826
    76  H    0.135348
    77  H    0.117821
    78  H    0.120857
    79  H    0.075262
    80  H    0.145184
    81  H    0.137300
    82  H    0.130912
    83  H    0.094227
    84  H    0.131626
    85  H    0.137939
    86  H    0.144098
    87  H    0.125087
    88  H    0.136421
    89  H    0.131352
    90  H    0.350197
 Sum of Mulliken charges =  -0.00000

 Dipole moment (field-independent basis, Debye):
    X=              0.1696    Y=             -2.7847    Z=              2.1136  Tot=              3.5001
 Quadrupole moment (field-independent basis, Debye-Ang):
   XX=           -286.1519   YY=           -293.0290   ZZ=           -286.7592
   XY=            -23.0418   XZ=            -12.9902   YZ=              0.6735

  Exact polarizability: 771.338 -25.158 740.869   2.841  50.090 381.594
 Approx polarizability:1312.115 -53.1341401.725   7.179 117.371 603.668

 Normal termination of Gaussian 16 at Sat Sep 10 09:48:41 2022.
