 Gaussian 16, Revision A.03,
 Gaussian 16:  ES64L-G16RevA.03 25-Dec-2016

 ---------------------------------------------------------------------
 # polar def2tzvp empiricaldispersion=gd3bj int=grid=ultrafine pbe1pbe
 ---------------------------------------------------------------------

 ---------
 1fj0_II_S
 ---------
 Symbolic Z-matrix:
 Charge =  0 Multiplicity = 1

                         Standard orientation:
 ---------------------------------------------------------------------
 Center     Atomic      Atomic             Coordinates (Angstroms)
 Number     Number       Type             X           Y           Z
 ---------------------------------------------------------------------
      1          6           0        2.539931   -1.278184    5.085850
      2          6           0        1.743601   -0.939978    3.869973
      3          7           0        0.352443   -0.941403    3.882255
      4          6           0        2.133309   -0.639332    2.603317
      5          6           0       -0.077681   -0.632783    2.662464
      6          7           0        0.963003   -0.455113    1.869615
      7          6           0       -0.859115    2.787809   -2.642729
      8          6           0        0.544383    2.166189   -2.670075
      9         16           0        0.459986    0.386385   -2.341597
     10          6           0        1.849296   -0.173942   -3.327237
     11         26           0        0.811159   -0.067953   -0.075309
     12          6           0       -2.602792   -0.149521   -0.064561
     13          6           0        0.888636   -3.461654   -0.669057
     14          6           0        4.188172    0.060896   -0.459554
     15          6           0        0.760016    3.217479    0.826950
     16          7           0       -0.579282   -1.502263   -0.308370
     17          6           0       -1.960176   -1.333465   -0.314903
     18          6           0       -2.571809   -2.591331   -0.626017
     19          6           0       -1.605098   -3.506648   -0.775083
     20          6           0       -0.342203   -2.836626   -0.598694
     21          6           0       -1.744385   -5.001413   -1.136408
     22          6           0       -4.109400   -2.810727   -0.678349
     23          6           0       -4.527023   -3.330651    0.718075
     24          6           0       -5.996295   -3.442938    1.015596
     25          8           0       -6.788232   -3.357567    0.053999
     26          8           0       -6.316155   -3.644956    2.219533
     27          7           0        2.240884   -1.415431   -0.492459
     28          6           0        2.088096   -2.785525   -0.596191
     29          6           0        3.392625   -3.414696   -0.683610
     30          6           0        4.316536   -2.446832   -0.640186
     31          6           0        3.603636   -1.193190   -0.550421
     32          6           0        3.600413   -4.941865   -0.770519
     33          6           0        5.841517   -2.583307   -0.740735
     34          6           0        6.162599   -3.315116   -2.057681
     35          7           0        2.184827    1.374060    0.113843
     36          6           0        3.551012    1.208002   -0.067117
     37          6           0        4.199616    2.459289    0.233433
     38          6           0        3.266056    3.353099    0.568034
     39          6           0        1.984638    2.671320    0.523071
     40          6           0        5.751763    2.617138    0.146257
     41          6           0        3.442570    4.798450    1.065244
     42          6           0        4.224180    5.815760    0.213326
     43          7           0       -0.626196    1.272329    0.324640
     44          6           0       -0.462252    2.575486    0.689058
     45          6           0       -1.758196    3.199555    0.882864
     46          6           0       -2.678118    2.267607    0.639832
     47          6           0       -1.995077    1.039415    0.266610
     48          6           0       -1.905585    4.681215    1.313350
     49          6           0       -4.228242    2.412735    0.631944
     50          6           0       -4.682397    2.589499   -0.854275
     51          6           0       -5.995694    3.283586   -1.089952
     52          8           0       -6.751257    3.384018   -0.126466
     53          8           0       -6.212404    3.695924   -2.278297
     54          1           0        3.022254    5.096742    2.002931
     55          1           0        3.725768    5.954246   -0.723321
     56          1           0        4.275420    6.750407    0.731697
     57          1           0        5.214418    5.449458    0.039684
     58          1           0        6.163916    1.793946   -0.399074
     59          1           0        5.989632    3.531979   -0.355125
     60          1           0        6.164593    2.633577    1.133273
     61          1           0        5.223646    0.139000   -0.717613
     62          1           0        5.293551   -3.840458   -2.394834
     63          1           0        6.458395   -2.602323   -2.798851
     64          1           0        6.958874   -4.010882   -1.894114
     65          1           0        6.554580   -2.232773   -0.024099
     66          1           0        2.740386   -5.393897   -1.218761
     67          1           0        4.464435   -5.150940   -1.366046
     68          1           0        3.740444   -5.339308    0.213011
     69          1           0        0.911826   -4.524980   -0.786102
     70          1           0       -2.770292   -5.224279   -1.343161
     71          1           0       -1.151525   -5.216133   -2.000879
     72          1           0       -1.407860   -5.599632   -0.315564
     73          1           0       -3.670628   -0.149696   -0.132586
     74          1           0       -2.585720    4.747441    2.136716
     75          1           0       -0.950685    5.063741    1.607866
     76          1           0       -2.282099    5.255316    0.492652
     77          1           0        0.748615    4.220088    1.200509
     78          1           0       -4.676920    1.534149    1.046280
     79          1           0       -4.515140    3.270671    1.203377
     80          1           0       -3.922525    3.142157   -1.366195
     81          1           0       -4.740707    1.617374   -1.297527
     82          1           0       -6.823287    3.221620   -2.847031
     83          1           0       -7.443229   -4.044303   -0.090824
     84          1           0       -4.094466   -4.300888    0.846271
     85          1           0       -4.096243   -2.679250    1.449516
     86          1           0       -4.351233   -3.535776   -1.427162
     87          1           0       -4.604953   -1.886046   -0.888805
     88          1           0        1.513913   -0.904210   -4.033725
     89          1           0        2.275048    0.657692   -3.848792
     90          1           0        2.587917   -0.609649   -2.687317
     91          1           0       -1.527317    2.136952   -2.118524
     92          1           0       -0.820249    3.734570   -2.145703
     93          1           0       -1.207958    2.925150   -3.644899
     94          1           0        0.982435    2.326676   -3.633016
     95          1           0        1.151894    2.634088   -1.923817
     96          1           0        3.137283   -0.559983    2.241876
     97          1           0       -1.103063   -0.542826    2.370233
     98          1           0       -0.225573   -1.140588    4.673598
     99          1           0        2.591552   -2.341449    5.194030
    100          1           0        3.528644   -0.881372    4.986422
    101          1           0        2.070585   -0.854234    5.948915
 ---------------------------------------------------------------------

 SCF Done:  E(RPBE1PBE) =  -3880.52700252     A.U. after   30 cycles

 The electronic state is 1-A.
 Alpha  occ. eigenvalues -- -256.30913 -89.01591 -30.07885 -25.90694 -25.90378
 Alpha  occ. eigenvalues --  -25.90250 -19.26825 -19.25461 -19.18631 -19.17935
 Alpha  occ. eigenvalues --  -14.44561 -14.39095 -14.37034 -14.36737 -14.36668
 Alpha  occ. eigenvalues --  -14.36213 -10.35464 -10.35213 -10.27866 -10.26186
 Alpha  occ. eigenvalues --  -10.24286 -10.24213 -10.24096 -10.24069 -10.23963
 Alpha  occ. eigenvalues --  -10.23954 -10.23945 -10.23855 -10.23808 -10.23657
 Alpha  occ. eigenvalues --  -10.23657 -10.22977 -10.22946 -10.22850 -10.22796
 Alpha  occ. eigenvalues --  -10.22562 -10.22296 -10.22060 -10.21814 -10.21810
 Alpha  occ. eigenvalues --  -10.21756 -10.21752 -10.21654 -10.21572 -10.21525
 Alpha  occ. eigenvalues --  -10.21517 -10.21507 -10.21106 -10.21092 -10.21087
 Alpha  occ. eigenvalues --  -10.21043 -10.20966 -10.20627 -10.20612 -10.20606
 Alpha  occ. eigenvalues --  -10.20487 -10.19606  -7.99401  -5.93059  -5.92755
 Alpha  occ. eigenvalues --   -5.92234  -3.42296  -2.18277  -2.17644  -2.17467
 Alpha  occ. eigenvalues --   -1.17374  -1.15594  -1.05845  -1.04161  -1.02231
 Alpha  occ. eigenvalues --   -0.97315  -0.96299  -0.96258  -0.95244  -0.90538
 Alpha  occ. eigenvalues --   -0.83589  -0.83069  -0.83034  -0.82382  -0.81400
 Alpha  occ. eigenvalues --   -0.81300  -0.80772  -0.80643  -0.80127  -0.78729
 Alpha  occ. eigenvalues --   -0.78235  -0.76164  -0.75847  -0.75510  -0.75246
 Alpha  occ. eigenvalues --   -0.73786  -0.72711  -0.72519  -0.71659  -0.71009
 Alpha  occ. eigenvalues --   -0.69968  -0.69457  -0.68854  -0.66374  -0.66169
 Alpha  occ. eigenvalues --   -0.65550  -0.65041  -0.64508  -0.64301  -0.62157
 Alpha  occ. eigenvalues --   -0.62032  -0.61699  -0.60054  -0.58932  -0.57407
 Alpha  occ. eigenvalues --   -0.56505  -0.55544  -0.54407  -0.54110  -0.53169
 Alpha  occ. eigenvalues --   -0.52311  -0.52160  -0.51966  -0.51707  -0.51242
 Alpha  occ. eigenvalues --   -0.50817  -0.50342  -0.49029  -0.48574  -0.48341
 Alpha  occ. eigenvalues --   -0.48177  -0.48088  -0.47838  -0.47780  -0.47593
 Alpha  occ. eigenvalues --   -0.46166  -0.45702  -0.45323  -0.45307  -0.44773
 Alpha  occ. eigenvalues --   -0.44501  -0.44227  -0.44135  -0.43902  -0.43838
 Alpha  occ. eigenvalues --   -0.43623  -0.43466  -0.43300  -0.43206  -0.43116
 Alpha  occ. eigenvalues --   -0.42949  -0.42661  -0.42445  -0.42306  -0.42144
 Alpha  occ. eigenvalues --   -0.41410  -0.41271  -0.41126  -0.40945  -0.40500
 Alpha  occ. eigenvalues --   -0.40370  -0.40145  -0.39654  -0.39411  -0.39269
 Alpha  occ. eigenvalues --   -0.39031  -0.38783  -0.38478  -0.38411  -0.38121
 Alpha  occ. eigenvalues --   -0.37936  -0.37533  -0.37447  -0.37432  -0.37149
 Alpha  occ. eigenvalues --   -0.36703  -0.36629  -0.36275  -0.36059  -0.35818
 Alpha  occ. eigenvalues --   -0.35073  -0.34724  -0.34585  -0.34257  -0.33691
 Alpha  occ. eigenvalues --   -0.33381  -0.33178  -0.32715  -0.32629  -0.32160
 Alpha  occ. eigenvalues --   -0.31892  -0.31380  -0.29806  -0.29449  -0.28267
 Alpha  occ. eigenvalues --   -0.28081  -0.27875  -0.27533  -0.26085  -0.25397
 Alpha  occ. eigenvalues --   -0.24483  -0.24253  -0.23851  -0.23210  -0.19993
 Alpha  occ. eigenvalues --   -0.18945  -0.18664  -0.18576  -0.18229  -0.13578
 Alpha virt. eigenvalues --   -0.11133  -0.06163  -0.06060  -0.01279  -0.01079
 Alpha virt. eigenvalues --    0.00069   0.01982   0.02235   0.02820   0.03139
 Alpha virt. eigenvalues --    0.03521   0.03872   0.04232   0.04667   0.04799

 Mulliken charges:
               1
     1  C   -0.385164
     2  C    0.177232
     3  N   -0.223280
     4  C   -0.220140
     5  C    0.005194
     6  N    0.078588
     7  C   -0.365230
     8  C   -0.154950
     9  S    0.037291
    10  C   -0.346780
    11  Fe  -0.440524
    12  C   -0.524349
    13  C   -0.516324
    14  C   -0.528190
    15  C   -0.477697
    16  N    0.029105
    17  C    0.272171
    18  C    0.025423
    19  C   -0.077992
    20  C    0.226977
    21  C   -0.416325
    22  C   -0.328184
    23  C   -0.198967
    24  C    0.271348
    25  O   -0.334225
    26  O   -0.366058
    27  N   -0.040741
    28  C    0.344442
    29  C   -0.139451
    30  C    0.085078
    31  C    0.071300
    32  C   -0.353968
    33  C   -0.330267
    34  C   -0.323328
    35  N    0.055793
    36  C    0.332054
    37  C   -0.062689
    38  C    0.029318
    39  C    0.132347
    40  C   -0.370009
    41  C   -0.318388
    42  C   -0.315043
    43  N    0.060138
    44  C    0.354152
    45  C   -0.090159
    46  C   -0.004026
    47  C    0.139510
    48  C   -0.409006
    49  C   -0.214496
    50  C   -0.265894
    51  C    0.296819
    52  O   -0.313207
    53  O   -0.371094
    54  H    0.143087
    55  H    0.138397
    56  H    0.121418
    57  H    0.119556
    58  H    0.120976
    59  H    0.115646
    60  H    0.135689
    61  H    0.109710
    62  H    0.133597
    63  H    0.133827
    64  H    0.118309
    65  H    0.153733
    66  H    0.120884
    67  H    0.120321
    68  H    0.137566
    69  H    0.120910
    70  H    0.123910
    71  H    0.142729
    72  H    0.141662
    73  H    0.098364
    74  H    0.138191
    75  H    0.127756
    76  H    0.137316
    77  H    0.078222
    78  H    0.127035
    79  H    0.127247
    80  H    0.144553
    81  H    0.117133
    82  H    0.350881
    83  H    0.352303
    84  H    0.134807
    85  H    0.137750
    86  H    0.119258
    87  H    0.121099
    88  H    0.141407
    89  H    0.129865
    90  H    0.149287
    91  H    0.140336
    92  H    0.111167
    93  H    0.119197
    94  H    0.120397
    95  H    0.137971
    96  H    0.154748
    97  H    0.182524
    98  H    0.234006
    99  H    0.144121
   100  H    0.146216
   101  H    0.126786
 Sum of Mulliken charges =  -0.00000

 Dipole moment (field-independent basis, Debye):
    X=              1.2255    Y=             -2.3385    Z=             -1.6651  Tot=              3.1214
 Quadrupole moment (field-independent basis, Debye-Ang):
   XX=           -328.5009   YY=           -313.4634   ZZ=           -298.4782
   XY=             18.7239   XZ=             36.0989   YZ=              1.2863

  Exact polarizability: 904.551 -46.0751005.827 -30.883 108.152 459.964
 Approx polarizability:2031.326********6825.605-393.9401440.0661022.280

 Normal termination of Gaussian 16 at Fri Oct 21 10:37:49 2022.
