 Gaussian 16, Revision A.03,
 Gaussian 16:  ES64L-G16RevA.03 25-Dec-2016

 ----------------------------------------------------------------------
 # PBE1PBE/def2TZVP empiricaldispersion=GD3BJ int=(grid=ultrafine) geom
 =check pop=nbo
 ----------------------------------------------------------------------

 ----------
 1gu2_III_H
 ----------
 Structure from the checkpoint file:  "1gu2_III_H.chk"
 Charge =  1 Multiplicity = 6

                         Standard orientation:
 ---------------------------------------------------------------------
 Center     Atomic      Atomic             Coordinates (Angstroms)
 Number     Number       Type             X           Y           Z
 ---------------------------------------------------------------------
      1          6           0        2.704838    0.332952    5.429888
      2          6           0        1.943968    0.427499    4.144540
      3          7           0        0.679164    0.961893    4.057920
      4          6           0        2.207117    0.042068    2.892359
      5          6           0        0.223858    0.894646    2.795407
      6          7           0        1.148496    0.340614    2.053592
      7          6           0       -1.126458   -2.086096   -4.648514
      8          6           0       -0.401806   -1.237368   -3.653360
      9          7           0       -0.094027    0.098372   -3.869468
     10          6           0        0.039895   -1.497936   -2.410791
     11          6           0        0.495629    0.600977   -2.797628
     12          7           0        0.589738   -0.362080   -1.872165
     13         26           0        0.877555   -0.038764    0.087662
     14          6           0       -2.518303    0.397594    0.091212
     15          6           0        0.437434   -3.332987    0.858068
     16          6           0        4.235937   -0.565323   -0.411482
     17          6           0        1.312088    3.339739   -0.322616
     18          7           0       -0.698353   -1.215969    0.471330
     19          6           0       -2.058724   -0.867290    0.414153
     20          6           0       -2.867787   -2.015415    0.715964
     21          6           0       -2.041923   -3.042121    0.978924
     22          6           0       -0.694765   -2.561899    0.788550
     23          6           0       -2.411889   -4.497193    1.362892
     24          6           0       -4.406015   -2.022993    0.732984
     25          6           0       -5.006041   -2.445804   -0.620591
     26          6           0       -6.495871   -2.429596   -0.607788
     27          8           0       -7.095849   -2.164545   -1.672164
     28          8           0       -7.125207   -2.673094    0.435158
     29          7           0        2.083992   -1.640650    0.186837
     30          6           0        1.723997   -2.923093    0.493696
     31          6           0        2.876953   -3.801275    0.341717
     32          6           0        3.931993   -3.028008   -0.041617
     33          6           0        3.435965   -1.672165   -0.109678
     34          6           0        2.880107   -5.323393    0.566207
     35          6           0        5.397096   -3.431975   -0.328196
     36          6           0        5.484299   -4.464017   -1.450459
     37          7           0        2.449115    1.148970   -0.277264
     38          6           0        3.777579    0.743020   -0.417335
     39          6           0        4.626398    1.909068   -0.535429
     40          6           0        3.817802    3.009708   -0.488775
     41          6           0        2.467372    2.543957   -0.339944
     42          6           0        6.161978    1.801312   -0.627801
     43          6           0        4.180108    4.495045   -0.472775
     44          6           0        4.988882    5.102893   -1.633812
     45          7           0       -0.345187    1.525766   -0.073598
     46          6           0        0.023452    2.862786   -0.277852
     47          6           0       -1.145517    3.658723   -0.542951
     48          6           0       -2.209579    2.803940   -0.612085
     49          6           0       -1.734826    1.503807   -0.193576
     50          6           0       -1.158150    5.182662   -0.758284
     51          6           0       -3.633873    3.166254   -1.105323
     52          6           0       -4.448366    3.967403   -0.058726
     53          6           0       -5.246706    3.101184    0.892900
     54          8           0       -5.621650    3.551733    2.014427
     55          8           0       -5.556423    1.933197    0.538905
     56          1           0       -6.079195    4.394189    2.064628
     57          1           0       -8.082340   -2.599820    0.446420
     58          1           0       -4.658681   -1.774943   -1.378342
     59          1           0       -4.672236   -3.435320   -0.853687
     60          1           0       -4.754255   -1.040391    0.974071
     61          1           0       -4.740378   -2.703958    1.487562
     62          1           0       -3.771205    4.566671    0.513314
     63          1           0       -5.123816    4.615660   -0.576828
     64          1           0       -3.550866    3.750683   -1.997765
     65          1           0       -4.159798    2.262548   -1.332517
     66          1           0       -3.579085    0.533861    0.058433
     67          1           0       -1.692746    5.411540   -1.656461
     68          1           0       -1.637678    5.656333    0.072732
     69          1           0       -0.152806    5.539555   -0.840824
     70          1           0        1.444302    4.401280   -0.346084
     71          1           0        6.525556    2.499452   -1.352584
     72          1           0        6.592993    2.021015    0.326587
     73          1           0        6.432843    0.808702   -0.921498
     74          1           0        3.871717    5.112174    0.345116
     75          1           0        4.329170    5.631673   -2.289611
     76          1           0        5.720787    5.778674   -1.243255
     77          1           0        5.478629    4.320667   -2.175265
     78          1           0        5.263910   -0.738858   -0.652433
     79          1           0        5.943688   -4.019758   -2.308652
     80          1           0        6.070151   -5.297623   -1.123691
     81          1           0        4.500155   -4.797772   -1.705350
     82          1           0        6.243536   -3.037776    0.194343
     83          1           0        3.354955   -5.805204   -0.262815
     84          1           0        3.414930   -5.550289    1.464752
     85          1           0        1.872629   -5.673234    0.652805
     86          1           0        0.326988   -4.333116    1.221998
     87          1           0       -2.163291   -5.153414    0.555135
     88          1           0       -1.866275   -4.785079    2.237150
     89          1           0       -3.461548   -4.557755    1.561507
     90          1           0       -0.663262   -1.985191   -5.607768
     91          1           0       -1.087638   -3.109800   -4.339610
     92          1           0       -2.147033   -1.770642   -4.710294
     93          1           0       -0.288815    0.604834   -4.709441
     94          1           0        0.839748    1.608222   -2.688361
     95          1           0       -0.026996   -2.445197   -1.917717
     96          1           0        3.405700    1.139255    5.489620
     97          1           0        2.023431    0.390973    6.252821
     98          1           0        3.229349   -0.598967    5.466152
     99          1           0        3.113797   -0.433074    2.580798
    100          1           0        0.169557    1.346811    4.827425
    101          1           0       -0.731437    1.235811    2.454938
 ---------------------------------------------------------------------

 SCF Done:  E(UPBE1PBE) =  -3628.67401324     A.U. after   54 cycles

 Alpha virt. eigenvalues --    1.06480   1.06759   1.06932   1.07582   1.08048
 Alpha virt. eigenvalues --    1.08625   1.08834   1.09225   1.09637   1.09669
 Alpha virt. eigenvalues --    1.09927   1.10318   1.10856   1.11059   1.11265

  Beta  occ. eigenvalues -- -256.49277 -30.23892 -26.07280 -26.07246 -26.06030
  Beta  occ. eigenvalues --  -19.33882 -19.32533 -19.26184 -19.22439 -14.53746
  Beta  occ. eigenvalues --  -14.53356 -14.47697 -14.47598 -14.47568 -14.47430
  Beta  occ. eigenvalues --  -14.47396 -14.47278 -10.43688 -10.40599 -10.37668
  Beta  occ. eigenvalues --  -10.37352 -10.34804 -10.34764 -10.34748 -10.34636
  Beta  occ. eigenvalues --  -10.34625 -10.34582 -10.34425 -10.34416 -10.34333
  Beta  occ. eigenvalues --  -10.34133 -10.32282 -10.32120 -10.32115 -10.31917
  Beta  occ. eigenvalues --  -10.31877 -10.31801 -10.31748 -10.31659 -10.31519
  Beta  occ. eigenvalues --  -10.31513 -10.31439 -10.31390 -10.31275 -10.31098
  Beta  occ. eigenvalues --  -10.31092 -10.31064 -10.31064 -10.30952 -10.30812
  Beta  occ. eigenvalues --  -10.30592 -10.30321 -10.30019 -10.29855 -10.29601
  Beta  occ. eigenvalues --  -10.29308 -10.29071 -10.28700 -10.28355  -3.54497
  Beta  occ. eigenvalues --   -2.30652  -2.30603  -2.26362  -1.24006  -1.23391
  Beta  occ. eigenvalues --   -1.15335  -1.15289  -1.10456  -1.07443  -1.07251
  Beta  occ. eigenvalues --   -1.06351  -1.05933  -1.05057  -1.00038  -0.99857
  Beta  occ. eigenvalues --   -0.92845  -0.91972  -0.91643  -0.90194  -0.90077
  Beta  occ. eigenvalues --   -0.90037  -0.90027  -0.89897  -0.89440  -0.87632
  Beta  occ. eigenvalues --   -0.87198  -0.84811  -0.84527  -0.83579  -0.82481
  Beta  occ. eigenvalues --   -0.81673  -0.81233  -0.81087  -0.80606  -0.79895
  Beta  occ. eigenvalues --   -0.78243  -0.77769  -0.77029  -0.75214  -0.74739
  Beta  occ. eigenvalues --   -0.73976  -0.73915  -0.73450  -0.72611  -0.71091
  Beta  occ. eigenvalues --   -0.70851  -0.70149  -0.69501  -0.68316  -0.67088
  Beta  occ. eigenvalues --   -0.65917  -0.65699  -0.65000  -0.63647  -0.63081
  Beta  occ. eigenvalues --   -0.62455  -0.61645  -0.61123  -0.60717  -0.60292
  Beta  occ. eigenvalues --   -0.58928  -0.58730  -0.57776  -0.57405  -0.57369
  Beta  occ. eigenvalues --   -0.57076  -0.56833  -0.56655  -0.56594  -0.56423
  Beta  occ. eigenvalues --   -0.55731  -0.55173  -0.55088  -0.54004  -0.53969
  Beta  occ. eigenvalues --   -0.53637  -0.53397  -0.53120  -0.52709  -0.52610
  Beta  occ. eigenvalues --   -0.52350  -0.52227  -0.52181  -0.51950  -0.51804
  Beta  occ. eigenvalues --   -0.51765  -0.51574  -0.51381  -0.51302  -0.50896
  Beta  occ. eigenvalues --   -0.50753  -0.50477  -0.50276  -0.50214  -0.50026
  Beta  occ. eigenvalues --   -0.49889  -0.49710  -0.49468  -0.49273  -0.49073
  Beta  occ. eigenvalues --   -0.48782  -0.48436  -0.48217  -0.48100  -0.47597
  Beta  occ. eigenvalues --   -0.47424  -0.47230  -0.47007  -0.46716  -0.46227
  Beta  occ. eigenvalues --   -0.45906  -0.45782  -0.45636  -0.45490  -0.44690
  Beta  occ. eigenvalues --   -0.44586  -0.43881  -0.43743  -0.43529  -0.43326
  Beta  occ. eigenvalues --   -0.43068  -0.42772  -0.42539  -0.42008  -0.41715
  Beta  occ. eigenvalues --   -0.41674  -0.40894  -0.39835  -0.39399  -0.37613
  Beta  occ. eigenvalues --   -0.37370  -0.37281  -0.36073  -0.34991  -0.34434
  Beta  occ. eigenvalues --   -0.34152  -0.33719  -0.33463  -0.33319  -0.32646
  Beta  occ. eigenvalues --   -0.32288  -0.28766  -0.28297
  Beta virt. eigenvalues --   -0.18138  -0.17896  -0.13840  -0.13803  -0.12516
  Beta virt. eigenvalues --   -0.11770  -0.09308  -0.08882  -0.08059  -0.07758
  Beta virt. eigenvalues --   -0.06651  -0.06356  -0.05581  -0.04979  -0.04683

 Mulliken charges and spin densities:
               1          2
     1  C   -0.355813   0.001138
     2  C    0.156251   0.003817
     3  N   -0.214611   0.004010
     4  C   -0.202769   0.003062
     5  C    0.032214   0.010262
     6  N    0.092093   0.041442
     7  C   -0.369560   0.001368
     8  C    0.137177   0.003353
     9  N   -0.196189   0.005018
    10  C   -0.175798   0.004665
    11  C    0.023789   0.016460
    12  N    0.039032   0.043967
    13  Fe  -0.340154   2.945249
    14  C   -0.571595  -0.023341
    15  C   -0.517921   0.022257
    16  C   -0.482584   0.027951
    17  C   -0.520658  -0.018357
    18  N    0.000172  -0.052497
    19  C    0.267546   0.026941
    20  C    0.078290  -0.002978
    21  C   -0.058376   0.021608
    22  C    0.196060  -0.007536
    23  C   -0.393778  -0.001922
    24  C   -0.439791  -0.000373
    25  C   -0.119067   0.000032
    26  C    0.245063   0.000014
    27  O   -0.385173   0.000024
    28  O   -0.318276  -0.000000
    29  N    0.013625  -0.024978
    30  C    0.267717  -0.017452
    31  C   -0.061067   0.106524
    32  C   -0.018678  -0.118496
    33  C    0.201407   0.016592
    34  C   -0.345473  -0.006094
    35  C   -0.248149   1.016644
    36  C   -0.344439  -0.065525
    37  N    0.010651  -0.039079
    38  C    0.329483  -0.013002
    39  C   -0.092439   0.133275
    40  C    0.013877  -0.133397
    41  C    0.199089   0.045705
    42  C   -0.350294  -0.007415
    43  C   -0.260604   1.006919
    44  C   -0.325285  -0.065293
    45  N   -0.051357  -0.066965
    46  C    0.232981   0.034387
    47  C   -0.041970   0.009131
    48  C   -0.139003   0.016112
    49  C    0.305277   0.027802
    50  C   -0.360483  -0.001092
    51  C   -0.207755  -0.002010
    52  C   -0.243027   0.000717
    53  C    0.331135   0.000113
    54  O   -0.330001   0.000016
    55  O   -0.374947  -0.000025
    56  H    0.353728   0.000000
    57  H    0.353841   0.000005
    58  H    0.132910   0.000063
    59  H    0.128230   0.000002
    60  H    0.160663  -0.000038
    61  H    0.143879  -0.000020
    62  H    0.120129  -0.000037
    63  H    0.148121   0.000160
    64  H    0.139534   0.000395
    65  H    0.160856  -0.000004
    66  H    0.190833   0.000565
    67  H    0.142134   0.000344
    68  H    0.145104   0.000641
    69  H    0.132958   0.000006
    70  H    0.117729   0.006222
    71  H    0.133389   0.002014
    72  H    0.152225   0.005868
    73  H    0.130879   0.000482
    74  H    0.148041  -0.046273
    75  H    0.138148   0.041040
    76  H    0.140767   0.017876
    77  H    0.127335   0.005136
    78  H    0.122028   0.003516
    79  H    0.142951   0.038399
    80  H    0.139655   0.027122
    81  H    0.135004   0.000757
    82  H    0.157655  -0.047112
    83  H    0.136557   0.002911
    84  H    0.152398   0.004604
    85  H    0.123918  -0.000065
    86  H    0.130909  -0.001301
    87  H    0.152875   0.000952
    88  H    0.146966   0.000684
    89  H    0.143421  -0.000059
    90  H    0.144010   0.000083
    91  H    0.148606   0.000020
    92  H    0.156454   0.000138
    93  H    0.243039   0.001906
    94  H    0.188871   0.000012
    95  H    0.157633   0.000712
    96  H    0.157880   0.000073
    97  H    0.133422   0.000138
    98  H    0.156611   0.000020
    99  H    0.148438   0.000937
   100  H    0.238327   0.001857
   101  H    0.185094   0.000506
 Sum of Mulliken charges =   1.00000   5.00000

 Dipole moment (field-independent basis, Debye):
    X=              2.7355    Y=              4.6958    Z=              2.4616  Tot=              5.9660
 Quadrupole moment (field-independent basis, Debye-Ang):
   XX=           -258.5641   YY=           -234.1992   ZZ=           -258.1775
   XY=            -23.4244   XZ=            -15.9688   YZ=              0.6712

 Summary of Natural Population Analysis:

                                       Natural Population
                Natural  -----------------------------------------------
    Atom  No    Charge         Core      Valence    Rydberg      Total
 -----------------------------------------------------------------------
      C    1   -0.31972      0.99969     2.31685    0.00317     3.31972
      C    2    0.06015      0.99950     1.93150    0.00885     2.93985
      N    3   -0.23486      0.99970     2.72558    0.00958     3.73486
      C    4   -0.03197      0.99938     2.02350    0.00908     3.03197
      C    5    0.11354      0.99964     1.87657    0.01025     2.88646
      N    6   -0.15611      0.99970     2.63540    0.02101     3.65611
      C    7   -0.31989      0.99969     2.31708    0.00312     3.31989
      C    8    0.05679      0.99951     1.93467    0.00902     2.94321
      N    9   -0.23248      0.99968     2.72317    0.00963     3.73248
      C   10   -0.02572      0.99940     2.01721    0.00911     3.02572
      C   11    0.11708      0.99966     1.87294    0.01033     2.88292
      N   12   -0.15795      0.99972     2.63694    0.02129     3.65795
     Fe   13    1.62022      8.99491     2.35793    0.02694    11.37978
      C   14   -0.13249      0.99948     2.12445    0.00856     3.13249
      C   15   -0.10801      0.99948     2.10028    0.00825     3.10801
      C   16   -0.10212      0.99948     2.09480    0.00783     3.10212
      C   17   -0.13016      0.99948     2.12251    0.00817     3.13016
      N   18   -0.21486      0.99970     2.69257    0.02259     3.71486
      C   19    0.09491      0.99950     1.89547    0.01013     2.90509
      C   20   -0.01043      0.99938     2.00153    0.00953     3.01043
      C   21    0.00789      0.99937     1.98455    0.00818     2.99211
      C   22    0.07544      0.99949     1.91454    0.01052     2.92456
      C   23   -0.32006      0.99970     2.31684    0.00352     3.32006
      C   24   -0.21346      0.99967     2.20704    0.00675     3.21346
      C   25   -0.24449      0.99962     2.23647    0.00840     3.24449
      C   26    0.37852      0.99975     1.60342    0.01831     2.62148
      O   27   -0.30791      0.99990     3.29588    0.01214     4.30791
      O   28   -0.32004      0.99980     3.30705    0.01319     4.32004
      N   29   -0.20389      0.99968     2.68092    0.02329     3.70389
      C   30    0.07689      0.99953     1.91298    0.01060     2.92311
      C   31    0.04446      0.99942     1.94801    0.00811     2.95554
      C   32   -0.08416      0.99940     2.07550    0.00926     3.08416
      C   33    0.09928      0.99951     1.89095    0.01026     2.90072
      C   34   -0.31996      0.99969     2.31679    0.00349     3.31996
      C   35    0.42749      0.99973     1.56834    0.00444     2.57251
      C   36   -0.35787      0.99972     2.35470    0.00344     3.35787
      N   37   -0.20808      0.99969     2.68568    0.02271     3.70808
      C   38    0.07249      0.99950     1.91746    0.01055     2.92751
      C   39    0.06474      0.99942     1.92800    0.00784     2.93526
      C   40   -0.09986      0.99941     2.09109    0.00937     3.09986
      C   41    0.11544      0.99951     1.87499    0.01006     2.88456
      C   42   -0.31830      0.99969     2.31513    0.00348     3.31830
      C   43    0.42681      0.99973     1.56898    0.00447     2.57319
      C   44   -0.35700      0.99972     2.35401    0.00327     3.35700
      N   45   -0.22787      0.99970     2.70623    0.02194     3.72787
      C   46    0.08622      0.99948     1.90356    0.01074     2.91378
      C   47   -0.00184      0.99942     1.99428    0.00815     3.00184
      C   48   -0.00330      0.99941     1.99458    0.00931     3.00330
      C   49    0.09078      0.99950     1.89937    0.01034     2.90922
      C   50   -0.31825      0.99969     2.31488    0.00367     3.31825
      C   51   -0.21292      0.99966     2.20598    0.00728     3.21292
      C   52   -0.26056      0.99962     2.25262    0.00832     3.26056
      C   53    0.38630      0.99975     1.59727    0.01667     2.61370
      O   54   -0.32819      0.99981     3.31356    0.01482     4.32819
      O   55   -0.29403      0.99989     3.28247    0.01167     4.29403
      H   56    0.25577      0.00000     0.24317    0.00107     0.24423
      H   57    0.25924      0.00000     0.23930    0.00146     0.24076
      H   58    0.12097      0.00000     0.37835    0.00068     0.37903
      H   59    0.11731      0.00000     0.38206    0.00063     0.38269
      H   60    0.11551      0.00000     0.38349    0.00100     0.38449
      H   61    0.11400      0.00000     0.38523    0.00077     0.38600
      H   62    0.11160      0.00000     0.38759    0.00081     0.38840
      H   63    0.12114      0.00000     0.37822    0.00064     0.37886
      H   64    0.11249      0.00000     0.38681    0.00069     0.38751
      H   65    0.12584      0.00000     0.37335    0.00080     0.37416
      H   66    0.12641      0.00000     0.37254    0.00105     0.37359
      H   67    0.11346      0.00000     0.38575    0.00079     0.38654
      H   68    0.11276      0.00000     0.38646    0.00077     0.38724
      H   69    0.11087      0.00000     0.38853    0.00060     0.38913
      H   70    0.11493      0.00000     0.38380    0.00126     0.38507
      H   71    0.11436      0.00000     0.38490    0.00074     0.38564
      H   72    0.11787      0.00000     0.38146    0.00067     0.38213
      H   73    0.10848      0.00000     0.39095    0.00057     0.39152
      H   74    0.07985      0.00000     0.41932    0.00083     0.42015
      H   75    0.13314      0.00000     0.36637    0.00049     0.36686
      H   76    0.12197      0.00000     0.37748    0.00054     0.37803
      H   77    0.11037      0.00000     0.38895    0.00068     0.38963
      H   78    0.11509      0.00000     0.38362    0.00129     0.38491
      H   79    0.13346      0.00000     0.36604    0.00049     0.36654
      H   80    0.12610      0.00000     0.37333    0.00056     0.37390
      H   81    0.10890      0.00000     0.39045    0.00065     0.39110
      H   82    0.08432      0.00000     0.41489    0.00079     0.41568
      H   83    0.11497      0.00000     0.38428    0.00075     0.38503
      H   84    0.11740      0.00000     0.38192    0.00068     0.38260
      H   85    0.10868      0.00000     0.39073    0.00059     0.39132
      H   86    0.11330      0.00000     0.38546    0.00124     0.38670
      H   87    0.11404      0.00000     0.38528    0.00068     0.38596
      H   88    0.11359      0.00000     0.38574    0.00066     0.38641
      H   89    0.11351      0.00000     0.38582    0.00067     0.38649
      H   90    0.11317      0.00000     0.38618    0.00066     0.38683
      H   91    0.11984      0.00000     0.37970    0.00046     0.38016
      H   92    0.11569      0.00000     0.38364    0.00067     0.38431
      H   93    0.21144      0.00000     0.28781    0.00075     0.28856
      H   94    0.11498      0.00000     0.38420    0.00081     0.38502
      H   95    0.11629      0.00000     0.38293    0.00079     0.38371
      H   96    0.11765      0.00000     0.38174    0.00061     0.38235
      H   97    0.11226      0.00000     0.38715    0.00059     0.38774
      H   98    0.12045      0.00000     0.37904    0.00051     0.37955
      H   99    0.11421      0.00000     0.38508    0.00071     0.38579
      H  100    0.20952      0.00000     0.28971    0.00076     0.29048
      H  101    0.11614      0.00000     0.38307    0.00079     0.38386
 =======================================================================
   * Total *    3.00000     62.97327   139.41699    0.60974   203.00000

 Normal termination of Gaussian 16 at Wed Dec 28 21:33:09 2022.
