 Gaussian 16, Revision A.03,
 Gaussian 16:  ES64L-G16RevA.03 25-Dec-2016

 ---------------------------------------------------------------------
 # polar def2tzvp empiricaldispersion=gd3bj int=grid=ultrafine pbe1pbe
 ---------------------------------------------------------------------

 ---------
 1gu2_II_S
 ---------
 Symbolic Z-matrix:
 Charge =  0 Multiplicity = 1

                         Standard orientation:
 ---------------------------------------------------------------------
 Center     Atomic      Atomic             Coordinates (Angstroms)
 Number     Number       Type             X           Y           Z
 ---------------------------------------------------------------------
      1          6           0        2.704838    0.332952    5.429888
      2          6           0        1.943968    0.427499    4.144540
      3          7           0        0.679164    0.961893    4.057920
      4          6           0        2.207117    0.042068    2.892359
      5          6           0        0.223858    0.894646    2.795407
      6          7           0        1.148496    0.340614    2.053592
      7          6           0       -1.126458   -2.086096   -4.648514
      8          6           0       -0.401806   -1.237368   -3.653360
      9          7           0       -0.094027    0.098372   -3.869468
     10          6           0        0.039895   -1.497936   -2.410791
     11          6           0        0.495629    0.600977   -2.797628
     12          7           0        0.589738   -0.362080   -1.872165
     13         26           0        0.877555   -0.038764    0.087662
     14          6           0       -2.518303    0.397594    0.091212
     15          6           0        0.437434   -3.332987    0.858068
     16          6           0        4.235937   -0.565323   -0.411482
     17          6           0        1.312088    3.339739   -0.322616
     18          7           0       -0.698353   -1.215969    0.471330
     19          6           0       -2.058724   -0.867290    0.414153
     20          6           0       -2.867787   -2.015415    0.715964
     21          6           0       -2.041923   -3.042121    0.978924
     22          6           0       -0.694765   -2.561899    0.788550
     23          6           0       -2.411889   -4.497193    1.362892
     24          6           0       -4.406015   -2.022993    0.732984
     25          6           0       -5.006041   -2.445804   -0.620591
     26          6           0       -6.495871   -2.429596   -0.607788
     27          8           0       -7.095849   -2.164545   -1.672164
     28          8           0       -7.125207   -2.673094    0.435158
     29          7           0        2.083992   -1.640650    0.186837
     30          6           0        1.723997   -2.923093    0.493696
     31          6           0        2.876953   -3.801275    0.341717
     32          6           0        3.931993   -3.028008   -0.041617
     33          6           0        3.435965   -1.672165   -0.109678
     34          6           0        2.880107   -5.323393    0.566207
     35          6           0        5.397096   -3.431975   -0.328196
     36          6           0        5.484299   -4.464017   -1.450459
     37          7           0        2.449115    1.148970   -0.277264
     38          6           0        3.777579    0.743020   -0.417335
     39          6           0        4.626398    1.909068   -0.535429
     40          6           0        3.817802    3.009708   -0.488775
     41          6           0        2.467372    2.543957   -0.339944
     42          6           0        6.161978    1.801312   -0.627801
     43          6           0        4.180108    4.495045   -0.472775
     44          6           0        4.988882    5.102893   -1.633812
     45          7           0       -0.345187    1.525766   -0.073598
     46          6           0        0.023452    2.862786   -0.277852
     47          6           0       -1.145517    3.658723   -0.542951
     48          6           0       -2.209579    2.803940   -0.612085
     49          6           0       -1.734826    1.503807   -0.193576
     50          6           0       -1.158150    5.182662   -0.758284
     51          6           0       -3.633873    3.166254   -1.105323
     52          6           0       -4.448366    3.967403   -0.058726
     53          6           0       -5.246706    3.101184    0.892900
     54          8           0       -5.621650    3.551733    2.014427
     55          8           0       -5.556423    1.933197    0.538905
     56          1           0       -6.079195    4.394189    2.064628
     57          1           0       -8.082340   -2.599820    0.446420
     58          1           0       -4.658681   -1.774943   -1.378342
     59          1           0       -4.672236   -3.435320   -0.853687
     60          1           0       -4.754255   -1.040391    0.974071
     61          1           0       -4.740378   -2.703958    1.487562
     62          1           0       -3.771205    4.566671    0.513314
     63          1           0       -5.123816    4.615660   -0.576828
     64          1           0       -3.550866    3.750683   -1.997765
     65          1           0       -4.159798    2.262548   -1.332517
     66          1           0       -3.579085    0.533861    0.058433
     67          1           0       -1.692746    5.411540   -1.656461
     68          1           0       -1.637678    5.656333    0.072732
     69          1           0       -0.152806    5.539555   -0.840824
     70          1           0        1.444302    4.401280   -0.346084
     71          1           0        6.525556    2.499452   -1.352584
     72          1           0        6.592993    2.021015    0.326587
     73          1           0        6.432843    0.808702   -0.921498
     74          1           0        3.871717    5.112174    0.345116
     75          1           0        4.329170    5.631673   -2.289611
     76          1           0        5.720787    5.778674   -1.243255
     77          1           0        5.478629    4.320667   -2.175265
     78          1           0        5.263910   -0.738858   -0.652433
     79          1           0        5.943688   -4.019758   -2.308652
     80          1           0        6.070151   -5.297623   -1.123691
     81          1           0        4.500155   -4.797772   -1.705350
     82          1           0        6.243536   -3.037776    0.194343
     83          1           0        3.354955   -5.805204   -0.262815
     84          1           0        3.414930   -5.550289    1.464752
     85          1           0        1.872629   -5.673234    0.652805
     86          1           0        0.326988   -4.333116    1.221998
     87          1           0       -2.163291   -5.153414    0.555135
     88          1           0       -1.866275   -4.785079    2.237150
     89          1           0       -3.461548   -4.557755    1.561507
     90          1           0       -0.663262   -1.985191   -5.607768
     91          1           0       -1.087638   -3.109800   -4.339610
     92          1           0       -2.147033   -1.770642   -4.710294
     93          1           0       -0.288815    0.604834   -4.709441
     94          1           0        0.839748    1.608222   -2.688361
     95          1           0       -0.026996   -2.445197   -1.917717
     96          1           0        3.405700    1.139255    5.489620
     97          1           0        2.023431    0.390973    6.252821
     98          1           0        3.229349   -0.598967    5.466152
     99          1           0        3.113797   -0.433074    2.580798
    100          1           0        0.169557    1.346811    4.827425
    101          1           0       -0.731437    1.235811    2.454938
 ---------------------------------------------------------------------

 SCF Done:  E(RPBE1PBE) =  -3628.79317261     A.U. after   31 cycles

 The electronic state is 1-A.
 Alpha  occ. eigenvalues -- -256.29603 -30.06629 -25.89440 -25.89174 -25.88924
 Alpha  occ. eigenvalues --  -19.26785 -19.25912 -19.18659 -19.15669 -14.43747
 Alpha  occ. eigenvalues --  -14.43434 -14.37915 -14.37762 -14.35986 -14.35585
 Alpha  occ. eigenvalues --  -14.35568 -14.34872 -10.36145 -10.33660 -10.27049
 Alpha  occ. eigenvalues --  -10.26741 -10.25009 -10.24874 -10.23828 -10.23427
 Alpha  occ. eigenvalues --  -10.23310 -10.23176 -10.23163 -10.23121 -10.22880
 Alpha  occ. eigenvalues --  -10.22784 -10.22715 -10.22665 -10.22650 -10.22598
 Alpha  occ. eigenvalues --  -10.22470 -10.22207 -10.22133 -10.22038 -10.21963
 Alpha  occ. eigenvalues --  -10.21543 -10.21388 -10.21336 -10.21265 -10.21123
 Alpha  occ. eigenvalues --  -10.21041 -10.20956 -10.20754 -10.20747 -10.20452
 Alpha  occ. eigenvalues --  -10.20422 -10.20366 -10.20192 -10.20177 -10.19957
 Alpha  occ. eigenvalues --  -10.19782 -10.19649 -10.19609 -10.19582  -3.41006
 Alpha  occ. eigenvalues --   -2.16919  -2.16462  -2.16094  -1.16842  -1.16729
 Alpha  occ. eigenvalues --   -1.05256  -1.05172  -1.02965  -1.00702  -0.95664
 Alpha  occ. eigenvalues --   -0.94702  -0.94566  -0.93597  -0.89824  -0.89588
 Alpha  occ. eigenvalues --   -0.82739  -0.82563  -0.81628  -0.80681  -0.80576
 Alpha  occ. eigenvalues --   -0.79765  -0.79491  -0.79230  -0.79007  -0.78140
 Alpha  occ. eigenvalues --   -0.77639  -0.75334  -0.74652  -0.73672  -0.72992
 Alpha  occ. eigenvalues --   -0.72392  -0.72051  -0.71740  -0.70788  -0.69789
 Alpha  occ. eigenvalues --   -0.69639  -0.68847  -0.67798  -0.66117  -0.65014
 Alpha  occ. eigenvalues --   -0.63875  -0.63836  -0.63639  -0.63417  -0.61091
 Alpha  occ. eigenvalues --   -0.60994  -0.60884  -0.60552  -0.57491  -0.55947
 Alpha  occ. eigenvalues --   -0.55874  -0.55647  -0.54928  -0.53672  -0.53394
 Alpha  occ. eigenvalues --   -0.52699  -0.51982  -0.51190  -0.50911  -0.50386
 Alpha  occ. eigenvalues --   -0.50086  -0.49599  -0.49437  -0.48153  -0.48103
 Alpha  occ. eigenvalues --   -0.47459  -0.47316  -0.47215  -0.47080  -0.46943
 Alpha  occ. eigenvalues --   -0.46800  -0.46615  -0.45237  -0.44935  -0.44182
 Alpha  occ. eigenvalues --   -0.43897  -0.43729  -0.43534  -0.43079  -0.43059
 Alpha  occ. eigenvalues --   -0.42800  -0.42723  -0.42615  -0.42485  -0.42392
 Alpha  occ. eigenvalues --   -0.42309  -0.42290  -0.42149  -0.41826  -0.41683
 Alpha  occ. eigenvalues --   -0.41644  -0.41497  -0.41362  -0.41135  -0.40552
 Alpha  occ. eigenvalues --   -0.40441  -0.40174  -0.39979  -0.39572  -0.39408
 Alpha  occ. eigenvalues --   -0.39215  -0.38719  -0.38447  -0.38110  -0.38054
 Alpha  occ. eigenvalues --   -0.37782  -0.37468  -0.37141  -0.36969  -0.36693
 Alpha  occ. eigenvalues --   -0.36354  -0.36145  -0.35892  -0.35587  -0.35545
 Alpha  occ. eigenvalues --   -0.34860  -0.34526  -0.34098  -0.33493  -0.33308
 Alpha  occ. eigenvalues --   -0.32813  -0.32454  -0.32055  -0.31117  -0.30885
 Alpha  occ. eigenvalues --   -0.30739  -0.30581  -0.30379  -0.28542  -0.28406
 Alpha  occ. eigenvalues --   -0.28287  -0.26776  -0.26509  -0.26047  -0.24463
 Alpha  occ. eigenvalues --   -0.24153  -0.23269  -0.23188  -0.22909  -0.22049
 Alpha  occ. eigenvalues --   -0.18763  -0.17915  -0.17383  -0.17235  -0.16799
 Alpha  occ. eigenvalues --   -0.12371
 Alpha virt. eigenvalues --   -0.09996  -0.05203  -0.05038  -0.01562   0.00513
 Alpha virt. eigenvalues --    0.01915   0.02543   0.02752   0.02789   0.03280
 Alpha virt. eigenvalues --    0.03622   0.03996   0.04537   0.05251   0.05467

 Mulliken charges:
               1
     1  C   -0.368918
     2  C    0.171625
     3  N   -0.228670
     4  C   -0.210023
     5  C    0.023481
     6  N    0.119874
     7  C   -0.382527
     8  C    0.150465
     9  N   -0.212004
    10  C   -0.180292
    11  C    0.014787
    12  N    0.071749
    13  Fe  -0.448898
    14  C   -0.591016
    15  C   -0.522337
    16  C   -0.503163
    17  C   -0.540836
    18  N    0.000889
    19  C    0.256519
    20  C    0.072984
    21  C   -0.059839
    22  C    0.185972
    23  C   -0.410207
    24  C   -0.445431
    25  C   -0.118127
    26  C    0.245893
    27  O   -0.398003
    28  O   -0.318211
    29  N    0.002192
    30  C    0.256246
    31  C   -0.067237
    32  C    0.006292
    33  C    0.177537
    34  C   -0.357490
    35  C   -0.321149
    36  C   -0.325199
    37  N    0.014734
    38  C    0.331557
    39  C   -0.110556
    40  C    0.033388
    41  C    0.192471
    42  C   -0.362899
    43  C   -0.328806
    44  C   -0.309666
    45  N   -0.053595
    46  C    0.236830
    47  C   -0.038051
    48  C   -0.148397
    49  C    0.298889
    50  C   -0.378545
    51  C   -0.221401
    52  C   -0.232977
    53  C    0.328100
    54  O   -0.334846
    55  O   -0.373715
    56  H    0.344921
    57  H    0.343032
    58  H    0.137187
    59  H    0.122254
    60  H    0.156607
    61  H    0.129129
    62  H    0.118079
    63  H    0.129029
    64  H    0.124323
    65  H    0.155736
    66  H    0.175549
    67  H    0.126034
    68  H    0.128551
    69  H    0.129553
    70  H    0.087296
    71  H    0.114650
    72  H    0.131301
    73  H    0.122858
    74  H    0.133072
    75  H    0.129674
    76  H    0.119401
    77  H    0.122973
    78  H    0.093370
    79  H    0.132707
    80  H    0.117864
    81  H    0.133766
    82  H    0.143607
    83  H    0.118177
    84  H    0.131456
    85  H    0.113907
    86  H    0.108637
    87  H    0.140958
    88  H    0.137575
    89  H    0.127852
    90  H    0.128864
    91  H    0.143616
    92  H    0.145872
    93  H    0.226818
    94  H    0.180041
    95  H    0.149041
    96  H    0.147696
    97  H    0.119605
    98  H    0.150336
    99  H    0.142061
   100  H    0.221636
   101  H    0.173885
 Sum of Mulliken charges =  -0.00000

 Dipole moment (field-independent basis, Debye):
    X=             -2.5110    Y=              4.6387    Z=              2.6076  Tot=              5.8840
 Quadrupole moment (field-independent basis, Debye-Ang):
   XX=           -329.1735   YY=           -290.7104   ZZ=           -282.6976
   XY=            -22.6919   XZ=            -15.4663   YZ=              3.4444

  Exact polarizability: 892.540 -24.9301060.917 -25.869 -43.594 454.696
 Approx polarizability:1678.190-713.5347781.768 -50.800-295.992 712.967

 Normal termination of Gaussian 16 at Sat Oct 22 08:57:48 2022.
