 Gaussian 16, Revision A.03,
 Gaussian 16:  ES64L-G16RevA.03 25-Dec-2016

 ----------------------------------------------------------------------
 # PBE1PBE/def2TZVP empiricaldispersion=GD3BJ scf=maxcycle=999 geom=che
 ck pop=nbo guess=read
 ----------------------------------------------------------------------

 ----------
 1gu2_III_D
 ----------
 Structure from the checkpoint file:  "1gu2_III_Dn.chk"
 Charge =  1 Multiplicity = 2

                         Standard orientation:
 ---------------------------------------------------------------------
 Center     Atomic      Atomic             Coordinates (Angstroms)
 Number     Number       Type             X           Y           Z
 ---------------------------------------------------------------------
      1          6           0        2.704838    0.332952    5.429888
      2          6           0        1.943968    0.427499    4.144540
      3          7           0        0.679164    0.961893    4.057920
      4          6           0        2.207117    0.042068    2.892359
      5          6           0        0.223858    0.894646    2.795407
      6          7           0        1.148496    0.340614    2.053592
      7          6           0       -1.126458   -2.086096   -4.648514
      8          6           0       -0.401806   -1.237368   -3.653360
      9          7           0       -0.094027    0.098372   -3.869468
     10          6           0        0.039895   -1.497936   -2.410791
     11          6           0        0.495629    0.600977   -2.797628
     12          7           0        0.589738   -0.362080   -1.872165
     13         26           0        0.877555   -0.038764    0.087662
     14          6           0       -2.518303    0.397594    0.091212
     15          6           0        0.437434   -3.332987    0.858068
     16          6           0        4.235937   -0.565323   -0.411482
     17          6           0        1.312088    3.339739   -0.322616
     18          7           0       -0.698353   -1.215969    0.471330
     19          6           0       -2.058724   -0.867290    0.414153
     20          6           0       -2.867787   -2.015415    0.715964
     21          6           0       -2.041923   -3.042121    0.978924
     22          6           0       -0.694765   -2.561899    0.788550
     23          6           0       -2.411889   -4.497193    1.362892
     24          6           0       -4.406015   -2.022993    0.732984
     25          6           0       -5.006041   -2.445804   -0.620591
     26          6           0       -6.495871   -2.429596   -0.607788
     27          8           0       -7.095849   -2.164545   -1.672164
     28          8           0       -7.125207   -2.673094    0.435158
     29          7           0        2.083992   -1.640650    0.186837
     30          6           0        1.723997   -2.923093    0.493696
     31          6           0        2.876953   -3.801275    0.341717
     32          6           0        3.931993   -3.028008   -0.041617
     33          6           0        3.435965   -1.672165   -0.109678
     34          6           0        2.880107   -5.323393    0.566207
     35          6           0        5.397096   -3.431975   -0.328196
     36          6           0        5.484299   -4.464017   -1.450459
     37          7           0        2.449115    1.148970   -0.277264
     38          6           0        3.777579    0.743020   -0.417335
     39          6           0        4.626398    1.909068   -0.535429
     40          6           0        3.817802    3.009708   -0.488775
     41          6           0        2.467372    2.543957   -0.339944
     42          6           0        6.161978    1.801312   -0.627801
     43          6           0        4.180108    4.495045   -0.472775
     44          6           0        4.988882    5.102893   -1.633812
     45          7           0       -0.345187    1.525766   -0.073598
     46          6           0        0.023452    2.862786   -0.277852
     47          6           0       -1.145517    3.658723   -0.542951
     48          6           0       -2.209579    2.803940   -0.612085
     49          6           0       -1.734826    1.503807   -0.193576
     50          6           0       -1.158150    5.182662   -0.758284
     51          6           0       -3.633873    3.166254   -1.105323
     52          6           0       -4.448366    3.967403   -0.058726
     53          6           0       -5.246706    3.101184    0.892900
     54          8           0       -5.621650    3.551733    2.014427
     55          8           0       -5.556423    1.933197    0.538905
     56          1           0       -6.079195    4.394189    2.064628
     57          1           0       -8.082340   -2.599820    0.446420
     58          1           0       -4.658681   -1.774943   -1.378342
     59          1           0       -4.672236   -3.435320   -0.853687
     60          1           0       -4.754255   -1.040391    0.974071
     61          1           0       -4.740378   -2.703958    1.487562
     62          1           0       -3.771205    4.566671    0.513314
     63          1           0       -5.123816    4.615660   -0.576828
     64          1           0       -3.550866    3.750683   -1.997765
     65          1           0       -4.159798    2.262548   -1.332517
     66          1           0       -3.579085    0.533861    0.058433
     67          1           0       -1.692746    5.411540   -1.656461
     68          1           0       -1.637678    5.656333    0.072732
     69          1           0       -0.152806    5.539555   -0.840824
     70          1           0        1.444302    4.401280   -0.346084
     71          1           0        6.525556    2.499452   -1.352584
     72          1           0        6.592993    2.021015    0.326587
     73          1           0        6.432843    0.808702   -0.921498
     74          1           0        3.871717    5.112174    0.345116
     75          1           0        4.329170    5.631673   -2.289611
     76          1           0        5.720787    5.778674   -1.243255
     77          1           0        5.478629    4.320667   -2.175265
     78          1           0        5.263910   -0.738858   -0.652433
     79          1           0        5.943688   -4.019758   -2.308652
     80          1           0        6.070151   -5.297623   -1.123691
     81          1           0        4.500155   -4.797772   -1.705350
     82          1           0        6.243536   -3.037776    0.194343
     83          1           0        3.354955   -5.805204   -0.262815
     84          1           0        3.414930   -5.550289    1.464752
     85          1           0        1.872629   -5.673234    0.652805
     86          1           0        0.326988   -4.333116    1.221998
     87          1           0       -2.163291   -5.153414    0.555135
     88          1           0       -1.866275   -4.785079    2.237150
     89          1           0       -3.461548   -4.557755    1.561507
     90          1           0       -0.663262   -1.985191   -5.607768
     91          1           0       -1.087638   -3.109800   -4.339610
     92          1           0       -2.147033   -1.770642   -4.710294
     93          1           0       -0.288815    0.604834   -4.709441
     94          1           0        0.839748    1.608222   -2.688361
     95          1           0       -0.026996   -2.445197   -1.917717
     96          1           0        3.405700    1.139255    5.489620
     97          1           0        2.023431    0.390973    6.252821
     98          1           0        3.229349   -0.598967    5.466152
     99          1           0        3.113797   -0.433074    2.580798
    100          1           0        0.169557    1.346811    4.827425
    101          1           0       -0.731437    1.235811    2.454938
 ---------------------------------------------------------------------

 SCF Done:  E(UPBE1PBE) =  -3628.68937686     A.U. after   46 cycles

 Alpha virt. eigenvalues --    1.06110   1.06383   1.06572   1.06933   1.07145
 Alpha virt. eigenvalues --    1.07664   1.08199   1.08736   1.09133   1.09340
 Alpha virt. eigenvalues --    1.09670   1.09771   1.10114   1.10315   1.10846

  Beta  occ. eigenvalues -- -256.49296 -30.28058 -26.11288 -26.10670 -26.09126
  Beta  occ. eigenvalues --  -19.33791 -19.32484 -19.26077 -19.22394 -14.54528
  Beta  occ. eigenvalues --  -14.53802 -14.49996 -14.49883 -14.47467 -14.47388
  Beta  occ. eigenvalues --  -14.47347 -14.47201 -10.43579 -10.40549 -10.38603
  Beta  occ. eigenvalues --  -10.37901 -10.35434 -10.35271 -10.34498 -10.34421
  Beta  occ. eigenvalues --  -10.34332 -10.34276 -10.34108 -10.34102 -10.34050
  Beta  occ. eigenvalues --  -10.33989 -10.33055 -10.32724 -10.31757 -10.31663
  Beta  occ. eigenvalues --  -10.31618 -10.31575 -10.31566 -10.31468 -10.31307
  Beta  occ. eigenvalues --  -10.31261 -10.31253 -10.31192 -10.31137 -10.31110
  Beta  occ. eigenvalues --  -10.31038 -10.31026 -10.30919 -10.30911 -10.30844
  Beta  occ. eigenvalues --  -10.30567 -10.30109 -10.29904 -10.29787 -10.29441
  Beta  occ. eigenvalues --  -10.29176 -10.28936 -10.28532 -10.28302  -3.63526
  Beta  occ. eigenvalues --   -2.40949  -2.39650  -2.36430  -1.23912  -1.23342
  Beta  occ. eigenvalues --   -1.16256  -1.16014  -1.10351  -1.07399  -1.07011
  Beta  occ. eigenvalues --   -1.06080  -1.05695  -1.04803  -1.00969  -1.00809
  Beta  occ. eigenvalues --   -0.92628  -0.91754  -0.91479  -0.90685  -0.90514
  Beta  occ. eigenvalues --   -0.89945  -0.89877  -0.89699  -0.89218  -0.87434
  Beta  occ. eigenvalues --   -0.87031  -0.84596  -0.84352  -0.83444  -0.82312
  Beta  occ. eigenvalues --   -0.82099  -0.81730  -0.81053  -0.80422  -0.79720
  Beta  occ. eigenvalues --   -0.78043  -0.77613  -0.76907  -0.75036  -0.74820
  Beta  occ. eigenvalues --   -0.74537  -0.74096  -0.73760  -0.72522  -0.71812
  Beta  occ. eigenvalues --   -0.71343  -0.69958  -0.69352  -0.68099  -0.66898
  Beta  occ. eigenvalues --   -0.66406  -0.66390  -0.64797  -0.63453  -0.62885
  Beta  occ. eigenvalues --   -0.62246  -0.61487  -0.60899  -0.60484  -0.60094
  Beta  occ. eigenvalues --   -0.58790  -0.58614  -0.57785  -0.57580  -0.57406
  Beta  occ. eigenvalues --   -0.57333  -0.57264  -0.57127  -0.56966  -0.56593
  Beta  occ. eigenvalues --   -0.55612  -0.55067  -0.55026  -0.54290  -0.53866
  Beta  occ. eigenvalues --   -0.53859  -0.53284  -0.53135  -0.52823  -0.52775
  Beta  occ. eigenvalues --   -0.52710  -0.52523  -0.52365  -0.52206  -0.51959
  Beta  occ. eigenvalues --   -0.51856  -0.51654  -0.51448  -0.51425  -0.51119
  Beta  occ. eigenvalues --   -0.50967  -0.50365  -0.50194  -0.50163  -0.50098
  Beta  occ. eigenvalues --   -0.49960  -0.49699  -0.49437  -0.49248  -0.48973
  Beta  occ. eigenvalues --   -0.48731  -0.48305  -0.48078  -0.47977  -0.47810
  Beta  occ. eigenvalues --   -0.47382  -0.47215  -0.47065  -0.46730  -0.46186
  Beta  occ. eigenvalues --   -0.45962  -0.45915  -0.45674  -0.45573  -0.45148
  Beta  occ. eigenvalues --   -0.44812  -0.44370  -0.44109  -0.43774  -0.43669
  Beta  occ. eigenvalues --   -0.43381  -0.43139  -0.42712  -0.42626  -0.42378
  Beta  occ. eigenvalues --   -0.41700  -0.41326  -0.40790  -0.40315  -0.39403
  Beta  occ. eigenvalues --   -0.38272  -0.38156  -0.37528  -0.37161  -0.36992
  Beta  occ. eigenvalues --   -0.35961  -0.34332  -0.34150  -0.33723  -0.33210
  Beta  occ. eigenvalues --   -0.32624  -0.32387  -0.31919  -0.28550  -0.28191
  Beta virt. eigenvalues --   -0.16804  -0.16591  -0.13776  -0.12805  -0.11836
  Beta virt. eigenvalues --   -0.11715  -0.09093  -0.08776  -0.08004  -0.07227
  Beta virt. eigenvalues --   -0.05963  -0.04975  -0.04902  -0.04501  -0.04349

 Mulliken charges and spin densities:
               1          2
     1  C   -0.354697   0.000209
     2  C    0.157758   0.000029
     3  N   -0.213624   0.000506
     4  C   -0.204022  -0.001162
     5  C    0.029178  -0.003195
     6  N    0.136442   0.032092
     7  C   -0.368145   0.000222
     8  C    0.139823  -0.000099
     9  N   -0.192733  -0.003381
    10  C   -0.174940  -0.001458
    11  C    0.030808  -0.014853
    12  N    0.092037   0.044556
    13  Fe  -0.445715  -1.116821
    14  C   -0.570866   0.002517
    15  C   -0.520051   0.038657
    16  C   -0.480960   0.041851
    17  C   -0.522279  -0.004483
    18  N    0.006650   0.043212
    19  C    0.265579   0.005761
    20  C    0.078879  -0.023868
    21  C   -0.062099   0.012977
    22  C    0.190942  -0.029250
    23  C   -0.393995  -0.000173
    24  C   -0.439831   0.002223
    25  C   -0.118788  -0.001168
    26  C    0.245307  -0.000102
    27  O   -0.385768  -0.000205
    28  O   -0.318166   0.000016
    29  N    0.023536   0.062420
    30  C    0.261493  -0.043792
    31  C   -0.064244   0.105365
    32  C   -0.019442  -0.144482
    33  C    0.198138  -0.001155
    34  C   -0.346112  -0.005274
    35  C   -0.246605   1.012364
    36  C   -0.344102  -0.065692
    37  N    0.014637   0.049478
    38  C    0.327580  -0.026915
    39  C   -0.092586   0.110162
    40  C    0.012406  -0.141193
    41  C    0.190485   0.022468
    42  C   -0.350542  -0.005891
    43  C   -0.262238   1.010833
    44  C   -0.325126  -0.065592
    45  N   -0.042193   0.024028
    46  C    0.225143   0.015264
    47  C   -0.043393   0.000289
    48  C   -0.141911  -0.003195
    49  C    0.302236   0.004999
    50  C   -0.361306   0.000280
    51  C   -0.207790   0.000093
    52  C   -0.242396  -0.000093
    53  C    0.330872  -0.000054
    54  O   -0.330304  -0.000002
    55  O   -0.375075  -0.000015
    56  H    0.353546   0.000004
    57  H    0.353690  -0.000019
    58  H    0.131925   0.000047
    59  H    0.127932   0.000031
    60  H    0.160573  -0.000224
    61  H    0.143555  -0.000320
    62  H    0.120096  -0.000003
    63  H    0.147439  -0.000000
    64  H    0.138427   0.000014
    65  H    0.159960  -0.000026
    66  H    0.190346   0.000085
    67  H    0.141028   0.000116
    68  H    0.144110   0.000195
    69  H    0.132408   0.000036
    70  H    0.117157   0.005933
    71  H    0.133206   0.001670
    72  H    0.151571   0.004748
    73  H    0.130439   0.000388
    74  H    0.146733  -0.046751
    75  H    0.137373   0.041095
    76  H    0.139960   0.017756
    77  H    0.126664   0.005116
    78  H    0.121314   0.003247
    79  H    0.142771   0.037996
    80  H    0.139262   0.026903
    81  H    0.134807   0.000817
    82  H    0.157262  -0.047366
    83  H    0.135769   0.002838
    84  H    0.151594   0.004461
    85  H    0.123480   0.000038
    86  H    0.130597  -0.001725
    87  H    0.151542   0.000375
    88  H    0.146033   0.000251
    89  H    0.142856   0.000118
    90  H    0.145464  -0.000018
    91  H    0.150492   0.000017
    92  H    0.158752   0.000038
    93  H    0.247538   0.000460
    94  H    0.194679   0.001000
    95  H    0.163034   0.000449
    96  H    0.159300  -0.000007
    97  H    0.134406   0.000005
    98  H    0.157893  -0.000007
    99  H    0.153602   0.000352
   100  H    0.241656   0.000128
   101  H    0.189878   0.000437
 Sum of Mulliken charges =   1.00000   1.00000

 Dipole moment (field-independent basis, Debye):
    X=              2.7409    Y=              4.5177    Z=              2.3186  Tot=              5.7704
 Quadrupole moment (field-independent basis, Debye-Ang):
   XX=           -260.8568   YY=           -236.8996   ZZ=           -253.6966
   XY=            -23.5424   XZ=            -14.9132   YZ=              1.8927

 Summary of Natural Population Analysis:

                                       Natural Population
                Natural  -----------------------------------------------
    Atom  No    Charge         Core      Valence    Rydberg      Total
 -----------------------------------------------------------------------
      C    1   -0.31988      0.99969     2.31702    0.00318     3.31988
      C    2    0.05904      0.99950     1.93252    0.00894     2.94096
      N    3   -0.23691      0.99970     2.72746    0.00975     3.73691
      C    4   -0.03703      0.99938     2.02855    0.00910     3.03703
      C    5    0.10157      0.99965     1.88831    0.01047     2.89843
      N    6   -0.16536      0.99966     2.63464    0.03107     3.66536
      C    7   -0.32032      0.99969     2.31751    0.00313     3.32032
      C    8    0.05661      0.99952     1.93491    0.00896     2.94339
      N    9   -0.23584      0.99968     2.72649    0.00966     3.73584
      C   10   -0.03086      0.99941     2.02206    0.00939     3.03086
      C   11    0.10176      0.99966     1.88799    0.01059     2.89824
      N   12   -0.16561      0.99967     2.63791    0.02803     3.66561
     Fe   13   -0.28785      8.99504     4.26476    0.02805    13.28785
      C   14   -0.12678      0.99948     2.11880    0.00850     3.12678
      C   15   -0.10433      0.99948     2.09667    0.00818     3.10433
      C   16   -0.10018      0.99948     2.09292    0.00777     3.10018
      C   17   -0.12640      0.99948     2.11884    0.00809     3.12640
      N   18   -0.18964      0.99967     2.66384    0.02612     3.68964
      C   19    0.08287      0.99950     1.90783    0.00980     2.91713
      C   20   -0.01860      0.99938     2.00965    0.00958     3.01860
      C   21   -0.00005      0.99937     1.99245    0.00823     3.00005
      C   22    0.06611      0.99949     1.92404    0.01036     2.93389
      C   23   -0.31929      0.99970     2.31607    0.00352     3.31929
      C   24   -0.21303      0.99967     2.20659    0.00677     3.21303
      C   25   -0.24501      0.99962     2.23698    0.00840     3.24501
      C   26    0.37859      0.99975     1.60335    0.01831     2.62141
      O   27   -0.30830      0.99990     3.29627    0.01214     4.30830
      O   28   -0.31999      0.99980     3.30699    0.01320     4.31999
      N   29   -0.17698      0.99965     2.65029    0.02705     3.67698
      C   30    0.06592      0.99953     1.92406    0.01049     2.93408
      C   31    0.04087      0.99942     1.95180    0.00791     2.95913
      C   32   -0.09528      0.99940     2.08648    0.00940     3.09528
      C   33    0.08813      0.99951     1.90245    0.00991     2.91187
      C   34   -0.31960      0.99969     2.31639    0.00352     3.31960
      C   35    0.42553      0.99973     1.57026    0.00447     2.57447
      C   36   -0.35803      0.99972     2.35486    0.00346     3.35803
      N   37   -0.18195      0.99967     2.65611    0.02617     3.68195
      C   38    0.06353      0.99951     1.92676    0.01021     2.93647
      C   39    0.05534      0.99942     1.93736    0.00788     2.94466
      C   40   -0.10578      0.99941     2.09692    0.00944     3.10578
      C   41    0.10297      0.99951     1.88761    0.00991     2.89703
      C   42   -0.31787      0.99969     2.31467    0.00351     3.31787
      C   43    0.42661      0.99973     1.56917    0.00449     2.57339
      C   44   -0.35704      0.99972     2.35405    0.00328     3.35704
      N   45   -0.20484      0.99967     2.67952    0.02565     3.70484
      C   46    0.07601      0.99948     1.91391    0.01060     2.92399
      C   47   -0.00851      0.99942     2.00091    0.00819     3.00851
      C   48   -0.01312      0.99941     2.00436    0.00935     3.01312
      C   49    0.07976      0.99950     1.91082    0.00991     2.92024
      C   50   -0.31770      0.99969     2.31433    0.00368     3.31770
      C   51   -0.21231      0.99966     2.20534    0.00730     3.21231
      C   52   -0.26111      0.99962     2.25315    0.00834     3.26111
      C   53    0.38631      0.99975     1.59726    0.01669     2.61369
      O   54   -0.32837      0.99981     3.31374    0.01482     4.32837
      O   55   -0.29410      0.99989     3.28253    0.01167     4.29410
      H   56    0.25570      0.00000     0.24324    0.00107     0.24430
      H   57    0.25918      0.00000     0.23936    0.00146     0.24082
      H   58    0.12080      0.00000     0.37853    0.00068     0.37920
      H   59    0.11726      0.00000     0.38211    0.00063     0.38274
      H   60    0.11535      0.00000     0.38364    0.00101     0.38465
      H   61    0.11379      0.00000     0.38543    0.00078     0.38621
      H   62    0.11168      0.00000     0.38751    0.00082     0.38832
      H   63    0.12089      0.00000     0.37846    0.00065     0.37911
      H   64    0.11200      0.00000     0.38730    0.00070     0.38800
      H   65    0.12554      0.00000     0.37365    0.00081     0.37446
      H   66    0.12579      0.00000     0.37316    0.00105     0.37421
      H   67    0.11291      0.00000     0.38630    0.00079     0.38709
      H   68    0.11207      0.00000     0.38715    0.00078     0.38793
      H   69    0.11064      0.00000     0.38876    0.00060     0.38936
      H   70    0.11456      0.00000     0.38418    0.00126     0.38544
      H   71    0.11412      0.00000     0.38513    0.00074     0.38588
      H   72    0.11714      0.00000     0.38218    0.00068     0.38286
      H   73    0.10827      0.00000     0.39116    0.00057     0.39173
      H   74    0.07934      0.00000     0.41982    0.00084     0.42066
      H   75    0.13286      0.00000     0.36665    0.00049     0.36714
      H   76    0.12160      0.00000     0.37785    0.00055     0.37840
      H   77    0.11020      0.00000     0.38911    0.00069     0.38980
      H   78    0.11459      0.00000     0.38412    0.00129     0.38541
      H   79    0.13325      0.00000     0.36625    0.00050     0.36675
      H   80    0.12583      0.00000     0.37360    0.00057     0.37417
      H   81    0.10898      0.00000     0.39036    0.00065     0.39102
      H   82    0.08410      0.00000     0.41511    0.00079     0.41590
      H   83    0.11460      0.00000     0.38464    0.00076     0.38540
      H   84    0.11690      0.00000     0.38241    0.00069     0.38310
      H   85    0.10851      0.00000     0.39090    0.00060     0.39149
      H   86    0.11294      0.00000     0.38584    0.00122     0.38706
      H   87    0.11323      0.00000     0.38607    0.00069     0.38677
      H   88    0.11297      0.00000     0.38636    0.00067     0.38703
      H   89    0.11339      0.00000     0.38595    0.00067     0.38661
      H   90    0.11371      0.00000     0.38564    0.00065     0.38629
      H   91    0.12062      0.00000     0.37892    0.00046     0.37938
      H   92    0.11653      0.00000     0.38281    0.00066     0.38347
      H   93    0.21267      0.00000     0.28657    0.00075     0.28733
      H   94    0.11764      0.00000     0.38156    0.00080     0.38236
      H   95    0.11831      0.00000     0.38091    0.00078     0.38169
      H   96    0.11813      0.00000     0.38127    0.00061     0.38187
      H   97    0.11266      0.00000     0.38675    0.00059     0.38734
      H   98    0.12092      0.00000     0.37858    0.00050     0.37908
      H   99    0.11600      0.00000     0.38331    0.00070     0.38400
      H  100    0.21031      0.00000     0.28892    0.00077     0.28969
      H  101    0.11788      0.00000     0.38135    0.00077     0.38212
 =======================================================================
   * Total *    1.00000     62.97324   141.38541    0.64135   205.00000

 Normal termination of Gaussian 16 at Thu Dec 15 13:29:10 2022.
