 Gaussian 16, Revision A.03,
 Gaussian 16:  AM64L-G16RevA.03 25-Dec-2016

 ----------------------------------------------------------------------
 # PBE1PBE/def2TZVP empiricaldispersion=GD3BJ int=(grid=ultrafine) geom
 =check pop=nbo
 ----------------------------------------------------------------------

 ---------
 1gu2_II_Q
 ---------
 Structure from the checkpoint file:  "1gu2_II_Q.chk"
 Charge =  0 Multiplicity = 5

                         Standard orientation:
 ---------------------------------------------------------------------
 Center     Atomic      Atomic             Coordinates (Angstroms)
 Number     Number       Type             X           Y           Z
 ---------------------------------------------------------------------
      1          6           0        2.704838    0.332952    5.429888
      2          6           0        1.943968    0.427499    4.144540
      3          7           0        0.679164    0.961893    4.057920
      4          6           0        2.207117    0.042068    2.892359
      5          6           0        0.223858    0.894646    2.795407
      6          7           0        1.148496    0.340614    2.053592
      7          6           0       -1.126458   -2.086096   -4.648514
      8          6           0       -0.401806   -1.237368   -3.653360
      9          7           0       -0.094027    0.098372   -3.869468
     10          6           0        0.039895   -1.497936   -2.410791
     11          6           0        0.495629    0.600977   -2.797628
     12          7           0        0.589738   -0.362080   -1.872165
     13         26           0        0.877555   -0.038764    0.087662
     14          6           0       -2.518303    0.397594    0.091212
     15          6           0        0.437434   -3.332987    0.858068
     16          6           0        4.235937   -0.565323   -0.411482
     17          6           0        1.312088    3.339739   -0.322616
     18          7           0       -0.698353   -1.215969    0.471330
     19          6           0       -2.058724   -0.867290    0.414153
     20          6           0       -2.867787   -2.015415    0.715964
     21          6           0       -2.041923   -3.042121    0.978924
     22          6           0       -0.694765   -2.561899    0.788550
     23          6           0       -2.411889   -4.497193    1.362892
     24          6           0       -4.406015   -2.022993    0.732984
     25          6           0       -5.006041   -2.445804   -0.620591
     26          6           0       -6.495871   -2.429596   -0.607788
     27          8           0       -7.095849   -2.164545   -1.672164
     28          8           0       -7.125207   -2.673094    0.435158
     29          7           0        2.083992   -1.640650    0.186837
     30          6           0        1.723997   -2.923093    0.493696
     31          6           0        2.876953   -3.801275    0.341717
     32          6           0        3.931993   -3.028008   -0.041617
     33          6           0        3.435965   -1.672165   -0.109678
     34          6           0        2.880107   -5.323393    0.566207
     35          6           0        5.397096   -3.431975   -0.328196
     36          6           0        5.484299   -4.464017   -1.450459
     37          7           0        2.449115    1.148970   -0.277264
     38          6           0        3.777579    0.743020   -0.417335
     39          6           0        4.626398    1.909068   -0.535429
     40          6           0        3.817802    3.009708   -0.488775
     41          6           0        2.467372    2.543957   -0.339944
     42          6           0        6.161978    1.801312   -0.627801
     43          6           0        4.180108    4.495045   -0.472775
     44          6           0        4.988882    5.102893   -1.633812
     45          7           0       -0.345187    1.525766   -0.073598
     46          6           0        0.023452    2.862786   -0.277852
     47          6           0       -1.145517    3.658723   -0.542951
     48          6           0       -2.209579    2.803940   -0.612085
     49          6           0       -1.734826    1.503807   -0.193576
     50          6           0       -1.158150    5.182662   -0.758284
     51          6           0       -3.633873    3.166254   -1.105323
     52          6           0       -4.448366    3.967403   -0.058726
     53          6           0       -5.246706    3.101184    0.892900
     54          8           0       -5.621650    3.551733    2.014427
     55          8           0       -5.556423    1.933197    0.538905
     56          1           0       -6.079195    4.394189    2.064628
     57          1           0       -8.082340   -2.599820    0.446420
     58          1           0       -4.658681   -1.774943   -1.378342
     59          1           0       -4.672236   -3.435320   -0.853687
     60          1           0       -4.754255   -1.040391    0.974071
     61          1           0       -4.740378   -2.703958    1.487562
     62          1           0       -3.771205    4.566671    0.513314
     63          1           0       -5.123816    4.615660   -0.576828
     64          1           0       -3.550866    3.750683   -1.997765
     65          1           0       -4.159798    2.262548   -1.332517
     66          1           0       -3.579085    0.533861    0.058433
     67          1           0       -1.692746    5.411540   -1.656461
     68          1           0       -1.637678    5.656333    0.072732
     69          1           0       -0.152806    5.539555   -0.840824
     70          1           0        1.444302    4.401280   -0.346084
     71          1           0        6.525556    2.499452   -1.352584
     72          1           0        6.592993    2.021015    0.326587
     73          1           0        6.432843    0.808702   -0.921498
     74          1           0        3.871717    5.112174    0.345116
     75          1           0        4.329170    5.631673   -2.289611
     76          1           0        5.720787    5.778674   -1.243255
     77          1           0        5.478629    4.320667   -2.175265
     78          1           0        5.263910   -0.738858   -0.652433
     79          1           0        5.943688   -4.019758   -2.308652
     80          1           0        6.070151   -5.297623   -1.123691
     81          1           0        4.500155   -4.797772   -1.705350
     82          1           0        6.243536   -3.037776    0.194343
     83          1           0        3.354955   -5.805204   -0.262815
     84          1           0        3.414930   -5.550289    1.464752
     85          1           0        1.872629   -5.673234    0.652805
     86          1           0        0.326988   -4.333116    1.221998
     87          1           0       -2.163291   -5.153414    0.555135
     88          1           0       -1.866275   -4.785079    2.237150
     89          1           0       -3.461548   -4.557755    1.561507
     90          1           0       -0.663262   -1.985191   -5.607768
     91          1           0       -1.087638   -3.109800   -4.339610
     92          1           0       -2.147033   -1.770642   -4.710294
     93          1           0       -0.288815    0.604834   -4.709441
     94          1           0        0.839748    1.608222   -2.688361
     95          1           0       -0.026996   -2.445197   -1.917717
     96          1           0        3.405700    1.139255    5.489620
     97          1           0        2.023431    0.390973    6.252821
     98          1           0        3.229349   -0.598967    5.466152
     99          1           0        3.113797   -0.433074    2.580798
    100          1           0        0.169557    1.346811    4.827425
    101          1           0       -0.731437    1.235811    2.454938
 ---------------------------------------------------------------------

 SCF Done:  E(UPBE1PBE) =  -3628.82302650     A.U. after   95 cycles

 Alpha virt. eigenvalues --    1.16333   1.16616   1.16900   1.17248   1.18222
 Alpha virt. eigenvalues --    1.18553   1.18950   1.19126   1.19366   1.19517
 Alpha virt. eigenvalues --    1.20044   1.20265   1.20642   1.20726   1.21228

  Beta  occ. eigenvalues -- -256.31848 -30.06517 -25.90336 -25.89674 -25.88314
  Beta  occ. eigenvalues --  -19.26575 -19.25753 -19.18428 -19.15506 -14.43638
  Beta  occ. eigenvalues --  -14.43234 -14.36629 -14.36450 -14.35662 -14.35545
  Beta  occ. eigenvalues --  -14.35172 -14.35045 -10.35914 -10.33491 -10.26967
  Beta  occ. eigenvalues --  -10.26560 -10.24829 -10.24716 -10.23570 -10.23097
  Beta  occ. eigenvalues --  -10.23069 -10.22852 -10.22778 -10.22732 -10.22640
  Beta  occ. eigenvalues --  -10.22632 -10.22599 -10.22549 -10.22162 -10.22059
  Beta  occ. eigenvalues --  -10.21938 -10.21858 -10.21761 -10.21651 -10.21324
  Beta  occ. eigenvalues --  -10.21164 -10.21067 -10.20968 -10.20927 -10.20903
  Beta  occ. eigenvalues --  -10.20894 -10.20881 -10.20643 -10.20526 -10.20509
  Beta  occ. eigenvalues --  -10.20469 -10.20323 -10.20222 -10.20158 -10.19977
  Beta  occ. eigenvalues --  -10.19922 -10.19784 -10.19687 -10.19652  -3.38292
  Beta  occ. eigenvalues --   -2.15903  -2.13739  -2.10121  -1.16628  -1.16568
  Beta  occ. eigenvalues --   -1.04963  -1.04932  -1.02736  -1.00539  -0.95594
  Beta  occ. eigenvalues --   -0.94585  -0.94463  -0.93467  -0.89480  -0.89271
  Beta  occ. eigenvalues --   -0.82469  -0.82328  -0.81429  -0.80514  -0.80415
  Beta  occ. eigenvalues --   -0.79579  -0.79302  -0.79242  -0.78728  -0.77899
  Beta  occ. eigenvalues --   -0.77432  -0.75072  -0.74419  -0.73493  -0.72762
  Beta  occ. eigenvalues --   -0.72223  -0.71773  -0.71567  -0.70845  -0.69988
  Beta  occ. eigenvalues --   -0.69402  -0.68674  -0.67769  -0.65892  -0.64858
  Beta  occ. eigenvalues --   -0.63690  -0.63655  -0.63462  -0.63166  -0.60893
  Beta  occ. eigenvalues --   -0.60705  -0.60239  -0.59713  -0.57312  -0.55836
  Beta  occ. eigenvalues --   -0.55706  -0.55489  -0.54637  -0.53416  -0.53146
  Beta  occ. eigenvalues --   -0.52524  -0.51869  -0.50987  -0.50786  -0.50225
  Beta  occ. eigenvalues --   -0.49990  -0.49470  -0.49314  -0.47979  -0.47903
  Beta  occ. eigenvalues --   -0.47327  -0.47205  -0.47049  -0.46943  -0.46783
  Beta  occ. eigenvalues --   -0.46616  -0.46433  -0.45102  -0.44709  -0.44130
  Beta  occ. eigenvalues --   -0.43820  -0.43550  -0.43354  -0.43084  -0.42883
  Beta  occ. eigenvalues --   -0.42623  -0.42582  -0.42443  -0.42366  -0.42253
  Beta  occ. eigenvalues --   -0.42157  -0.42130  -0.42081  -0.41631  -0.41554
  Beta  occ. eigenvalues --   -0.41408  -0.41283  -0.41187  -0.40989  -0.40604
  Beta  occ. eigenvalues --   -0.40421  -0.40188  -0.39846  -0.39434  -0.39396
  Beta  occ. eigenvalues --   -0.39137  -0.38566  -0.38284  -0.38165  -0.37857
  Beta  occ. eigenvalues --   -0.37653  -0.37355  -0.37121  -0.36831  -0.36568
  Beta  occ. eigenvalues --   -0.36194  -0.36148  -0.35782  -0.35565  -0.35351
  Beta  occ. eigenvalues --   -0.34790  -0.34372  -0.33820  -0.33390  -0.33104
  Beta  occ. eigenvalues --   -0.32780  -0.32191  -0.31794  -0.31091  -0.30777
  Beta  occ. eigenvalues --   -0.30590  -0.30564  -0.30358  -0.28600  -0.28320
  Beta  occ. eigenvalues --   -0.28243  -0.26718  -0.26513  -0.25917  -0.23998
  Beta  occ. eigenvalues --   -0.23751  -0.23025  -0.22777  -0.22464  -0.21784
  Beta  occ. eigenvalues --   -0.19334  -0.17814  -0.17465  -0.12115
  Beta virt. eigenvalues --   -0.06388  -0.04812  -0.03144  -0.02478  -0.01337
  Beta virt. eigenvalues --    0.00608   0.00994   0.02108   0.02731   0.02931
  Beta virt. eigenvalues --    0.03400   0.03696   0.04017   0.04153   0.04739

 Mulliken charges and spin densities:
               1          2
     1  C   -0.370022   0.001085
     2  C    0.170748   0.004793
     3  N   -0.227974   0.000072
     4  C   -0.207483  -0.002438
     5  C    0.024057  -0.011638
     6  N    0.090711   0.042737
     7  C   -0.383057   0.001152
     8  C    0.148505   0.001940
     9  N   -0.210197   0.002027
    10  C   -0.175393   0.003471
    11  C    0.020497   0.011018
    12  N    0.038652   0.027501
    13  Fe  -0.331432   2.372623
    14  C   -0.573582   0.016748
    15  C   -0.546510  -0.049064
    16  C   -0.487072   0.053543
    17  C   -0.552286  -0.094392
    18  N   -0.003120  -0.035487
    19  C    0.238362  -0.060054
    20  C    0.078592   0.029278
    21  C   -0.063118  -0.039692
    22  C    0.192309   0.008806
    23  C   -0.411213   0.003075
    24  C   -0.445598  -0.001690
    25  C   -0.118412   0.000610
    26  C    0.246092   0.000252
    27  O   -0.398482   0.000078
    28  O   -0.318220  -0.000021
    29  N   -0.014479   0.019898
    30  C    0.265402  -0.007345
    31  C   -0.066773   0.046253
    32  C   -0.013350  -0.112945
    33  C    0.183599  -0.039442
    34  C   -0.361741  -0.001107
    35  C   -0.270197   1.033740
    36  C   -0.335227  -0.066533
    37  N    0.003747  -0.028873
    38  C    0.308476  -0.075897
    39  C   -0.085777   0.175352
    40  C    0.009228  -0.204413
    41  C    0.191199   0.053959
    42  C   -0.365192  -0.010447
    43  C   -0.281376   1.012853
    44  C   -0.320167  -0.067455
    45  N   -0.079557  -0.023275
    46  C    0.235790   0.028769
    47  C   -0.043585  -0.052034
    48  C   -0.143851   0.030915
    49  C    0.286231  -0.061334
    50  C   -0.378971   0.004798
    51  C   -0.221782  -0.001487
    52  C   -0.232046   0.000966
    53  C    0.327999  -0.000162
    54  O   -0.335128   0.000004
    55  O   -0.373885   0.000048
    56  H    0.344480  -0.000041
    57  H    0.342678   0.000030
    58  H    0.137446   0.000072
    59  H    0.121990  -0.000012
    60  H    0.156773  -0.000093
    61  H    0.128629   0.000359
    62  H    0.117984   0.000025
    63  H    0.128008  -0.000044
    64  H    0.123095   0.000555
    65  H    0.155289   0.000095
    66  H    0.173993  -0.000945
    67  H    0.124346  -0.001249
    68  H    0.126692  -0.002023
    69  H    0.126588  -0.000246
    70  H    0.091747   0.008009
    71  H    0.117558   0.002399
    72  H    0.136838   0.007268
    73  H    0.123578   0.000706
    74  H    0.127036  -0.048584
    75  H    0.125437   0.040732
    76  H    0.119493   0.015839
    77  H    0.122212   0.004634
    78  H    0.098791   0.001677
    79  H    0.128119   0.038580
    80  H    0.118733   0.025566
    81  H    0.135989   0.000734
    82  H    0.137310  -0.048489
    83  H    0.118116   0.000922
    84  H    0.133705   0.002336
    85  H    0.117249  -0.000601
    86  H    0.105527   0.002431
    87  H    0.139197  -0.002031
    88  H    0.136304  -0.001674
    89  H    0.127012  -0.000192
    90  H    0.127996   0.000070
    91  H    0.143377   0.000040
    92  H    0.146006   0.000134
    93  H    0.224265   0.003068
    94  H    0.180139   0.000814
    95  H    0.148910   0.001200
    96  H    0.146643   0.000056
    97  H    0.119873   0.000122
    98  H    0.149344  -0.000058
    99  H    0.138075   0.001567
   100  H    0.219199   0.003069
   101  H    0.174287   0.002033
 Sum of Mulliken charges =  -0.00000   4.00000

 Dipole moment (field-independent basis, Debye):
    X=             -0.9623    Y=              4.4242    Z=              2.4948  Tot=              5.1695
 Quadrupole moment (field-independent basis, Debye-Ang):
   XX=           -323.4367   YY=           -290.9709   ZZ=           -284.7529
   XY=            -23.2032   XZ=            -15.7129   YZ=              3.5154

 Summary of Natural Population Analysis:

                                       Natural Population
                Natural  -----------------------------------------------
    Atom  No    Charge         Core      Valence    Rydberg      Total
 -----------------------------------------------------------------------
      C    1   -0.31781      0.99969     2.31493    0.00319     3.31781
      C    2    0.04847      0.99949     1.94266    0.00938     2.95153
      N    3   -0.24304      0.99970     2.73333    0.01000     3.74304
      C    4   -0.03455      0.99938     2.02580    0.00937     3.03455
      C    5    0.09227      0.99965     1.89689    0.01119     2.90773
      N    6   -0.15198      0.99971     2.62770    0.02456     3.65198
      C    7   -0.31821      0.99969     2.31541    0.00311     3.31821
      C    8    0.04476      0.99951     1.94633    0.00940     2.95524
      N    9   -0.23955      0.99968     2.72995    0.00991     3.73955
      C   10   -0.02415      0.99941     2.01523    0.00951     3.02415
      C   11    0.10975      0.99966     1.87962    0.01096     2.89025
      N   12   -0.15836      0.99972     2.63682    0.02182     3.65836
     Fe   13    1.27504      8.99460     2.70490    0.02546    11.72496
      C   14   -0.12106      0.99948     2.11281    0.00877     3.12106
      C   15   -0.15597      0.99948     2.14747    0.00902     3.15597
      C   16   -0.09401      0.99948     2.08644    0.00808     3.09401
      C   17   -0.17687      0.99948     2.16861    0.00878     3.17687
      N   18   -0.19552      0.99970     2.67352    0.02230     3.69552
      C   19    0.03508      0.99950     1.95431    0.01110     2.96492
      C   20   -0.00278      0.99937     1.99369    0.00972     3.00278
      C   21   -0.03587      0.99937     2.02797    0.00853     3.03587
      C   22    0.07758      0.99950     1.91188    0.01105     2.92242
      C   23   -0.31705      0.99970     2.31376    0.00359     3.31705
      C   24   -0.21277      0.99967     2.20613    0.00696     3.21277
      C   25   -0.24549      0.99962     2.23733    0.00853     3.24549
      C   26    0.38092      0.99975     1.60088    0.01845     2.61908
      O   27   -0.31515      0.99989     3.30312    0.01214     4.31515
      O   28   -0.32039      0.99980     3.30730    0.01329     4.32039
      N   29   -0.18303      0.99969     2.66251    0.02083     3.68303
      C   30    0.07724      0.99954     1.91287    0.01035     2.92276
      C   31   -0.00274      0.99942     1.99474    0.00858     3.00274
      C   32   -0.08381      0.99940     2.07488    0.00954     3.08381
      C   33    0.05803      0.99951     1.93226    0.01019     2.94197
      C   34   -0.31713      0.99970     2.31383    0.00360     3.31713
      C   35    0.42167      0.99974     1.57386    0.00474     2.57833
      C   36   -0.35803      0.99972     2.35480    0.00351     3.35803
      N   37   -0.19046      0.99970     2.66826    0.02250     3.69046
      C   38    0.02684      0.99951     1.96218    0.01148     2.97316
      C   39    0.07688      0.99942     1.91551    0.00819     2.92312
      C   40   -0.13693      0.99941     2.12773    0.00979     3.13693
      C   41    0.10785      0.99952     1.88189    0.01074     2.89215
      C   42   -0.31926      0.99970     2.31596    0.00361     3.31926
      C   43    0.40774      0.99973     1.58760    0.00493     2.59226
      C   44   -0.35649      0.99972     2.35345    0.00332     3.35649
      N   45   -0.20769      0.99971     2.68807    0.01991     3.70769
      C   46    0.07897      0.99948     1.91110    0.01044     2.92103
      C   47   -0.04924      0.99941     2.04100    0.00883     3.04924
      C   48   -0.01110      0.99941     2.00204    0.00965     3.01110
      C   49    0.03552      0.99951     1.95460    0.01036     2.96448
      C   50   -0.31556      0.99970     2.31211    0.00375     3.31556
      C   51   -0.21146      0.99967     2.20416    0.00763     3.21146
      C   52   -0.26168      0.99962     2.25349    0.00857     3.26168
      C   53    0.38601      0.99975     1.59746    0.01678     2.61399
      O   54   -0.33072      0.99981     3.31610    0.01481     4.33072
      O   55   -0.29273      0.99989     3.28117    0.01167     4.29273
      H   56    0.25255      0.00000     0.24630    0.00114     0.24745
      H   57    0.25553      0.00000     0.24283    0.00164     0.24447
      H   58    0.12261      0.00000     0.37670    0.00070     0.37739
      H   59    0.11651      0.00000     0.38284    0.00065     0.38349
      H   60    0.11384      0.00000     0.38510    0.00106     0.38616
      H   61    0.10924      0.00000     0.38996    0.00079     0.39076
      H   62    0.11212      0.00000     0.38703    0.00084     0.38788
      H   63    0.11537      0.00000     0.38388    0.00074     0.38463
      H   64    0.10741      0.00000     0.39185    0.00075     0.39259
      H   65    0.12384      0.00000     0.37535    0.00081     0.37616
      H   66    0.11771      0.00000     0.38122    0.00108     0.38229
      H   67    0.10613      0.00000     0.39296    0.00091     0.39387
      H   68    0.10436      0.00000     0.39469    0.00095     0.39564
      H   69    0.10915      0.00000     0.39020    0.00065     0.39085
      H   70    0.10861      0.00000     0.39001    0.00139     0.39139
      H   71    0.10907      0.00000     0.39012    0.00081     0.39093
      H   72    0.11333      0.00000     0.38595    0.00072     0.38667
      H   73    0.10688      0.00000     0.39251    0.00060     0.39312
      H   74    0.07508      0.00000     0.42391    0.00101     0.42492
      H   75    0.12804      0.00000     0.37143    0.00054     0.37196
      H   76    0.11406      0.00000     0.38529    0.00065     0.38594
      H   77    0.10912      0.00000     0.39012    0.00075     0.39088
      H   78    0.10736      0.00000     0.39128    0.00136     0.39264
      H   79    0.12861      0.00000     0.37087    0.00052     0.37139
      H   80    0.11897      0.00000     0.38038    0.00065     0.38103
      H   81    0.10988      0.00000     0.38944    0.00067     0.39012
      H   82    0.07948      0.00000     0.41967    0.00085     0.42052
      H   83    0.10781      0.00000     0.39131    0.00088     0.39219
      H   84    0.10940      0.00000     0.38977    0.00083     0.39060
      H   85    0.10655      0.00000     0.39279    0.00066     0.39345
      H   86    0.10682      0.00000     0.39190    0.00128     0.39318
      H   87    0.10788      0.00000     0.39122    0.00091     0.39212
      H   88    0.10835      0.00000     0.39081    0.00084     0.39165
      H   89    0.10760      0.00000     0.39168    0.00072     0.39240
      H   90    0.10737      0.00000     0.39190    0.00073     0.39263
      H   91    0.11718      0.00000     0.38235    0.00047     0.38282
      H   92    0.11130      0.00000     0.38795    0.00075     0.38870
      H   93    0.20557      0.00000     0.29363    0.00080     0.29443
      H   94    0.11390      0.00000     0.38525    0.00085     0.38610
      H   95    0.11463      0.00000     0.38457    0.00081     0.38537
      H   96    0.11277      0.00000     0.38655    0.00068     0.38723
      H   97    0.10743      0.00000     0.39193    0.00064     0.39257
      H   98    0.11698      0.00000     0.38248    0.00055     0.38302
      H   99    0.11262      0.00000     0.38669    0.00069     0.38738
      H  100    0.20352      0.00000     0.29566    0.00081     0.29648
      H  101    0.11549      0.00000     0.38372    0.00079     0.38451
 =======================================================================
   * Total *    2.00000     62.97310   140.40252    0.62438   204.00000

 Normal termination of Gaussian 16 at Fri Nov  4 15:19:06 2022.
