 Gaussian 16, Revision A.03,
 Gaussian 16:  ES64L-G16RevA.03 25-Dec-2016

 ----------------------------------------------------------------------
 # PBE1PBE/def2TZVP empiricaldispersion=GD3BJ scf=maxcycle=999 geom=che
 ck guess=read pop=nbo
 ----------------------------------------------------------------------

 -----------
 1h9xd_III_D
 -----------
 Structure from the checkpoint file:  "1h9xd_III_D.chk"
 Charge =  1 Multiplicity = 2

                         Standard orientation:
 ---------------------------------------------------------------------
 Center     Atomic      Atomic             Coordinates (Angstroms)
 Number     Number       Type             X           Y           Z
 ---------------------------------------------------------------------
      1          6           0        0.340892   -0.599667    5.597624
      2          6           0        0.186257   -0.717370    4.109296
      3          7           0       -0.624124   -1.698366    3.561525
      4          6           0        0.699828   -0.026906    3.062897
      5          6           0       -0.583537   -1.602257    2.244281
      6          7           0        0.201557   -0.585497    1.894054
      7         26           0        0.611459   -0.087848   -0.189557
      8          6           0       -2.837475   -0.377080   -0.662748
      9          6           0        0.889429   -3.416501   -0.991310
     10          6           0        3.943717    0.372308   -1.077430
     11          6           0        0.237820    3.336506   -0.120456
     12          7           0       -0.695994   -1.572565   -0.794608
     13          6           0       -2.073056   -1.510591   -0.771672
     14          6           0       -2.627815   -2.850449   -0.786828
     15          6           0       -1.612096   -3.707399   -0.875289
     16          6           0       -0.394241   -2.918845   -0.893653
     17          6           0       -1.674609   -5.254973   -0.947697
     18          6           0       -4.156995   -3.150684   -0.715172
     19          6           0       -4.682118   -3.161800    0.729927
     20          6           0       -6.101008   -3.589721    1.012528
     21          8           0       -6.726965   -4.049927    0.031102
     22          8           0       -6.548602   -3.477043    2.213815
     23          7           0        2.097267   -1.252607   -0.939232
     24          6           0        2.028625   -2.627859   -1.070545
     25          6           0        3.322142   -3.133769   -1.435957
     26          8           0        3.587413   -4.620604   -1.689423
     27          6           0        4.109297   -2.058843   -1.679010
     28          6           0        4.308739   -1.954896   -3.234508
     29          6           0        5.502538   -2.209324   -1.060400
     30          6           0        5.643063   -2.394974    0.241403
     31          8           0        6.768709   -2.768621    0.696331
     32          8           0        4.773045   -2.257382    1.133712
     33          6           0        3.422718   -0.903869   -1.149243
     34          7           0        1.817901    1.524250   -0.561253
     35          6           0        3.171352    1.496429   -0.803495
     36          6           0        3.708281    2.844107   -0.759892
     37          8           0        5.187375    3.145340   -0.970942
     38          6           0        2.676012    3.686430   -0.560647
     39          6           0        2.675126    4.558328   -1.849295
     40          6           0        2.901152    4.645863    0.607361
     41          6           0        3.013657    4.118966    1.816995
     42          8           0        2.222951    4.424412    2.749126
     43          8           0        3.922718    3.275107    2.097198
     44          6           0        1.499909    2.846735   -0.343008
     45          7           0       -0.962523    1.193529   -0.428967
     46          6           0       -0.902009    2.556747   -0.233209
     47          6           0       -2.245798    3.115890   -0.274225
     48          6           0       -3.095859    2.096648   -0.435292
     49          6           0       -2.294124    0.883846   -0.502979
     50          6           0       -2.531784    4.622769   -0.126017
     51          6           0       -4.637736    2.121232   -0.524098
     52          6           0       -5.306828    3.318162   -1.169716
     53          6           0       -6.789094    3.222493   -1.422978
     54          8           0       -7.377406    4.284925   -1.792283
     55          8           0       -7.355000    2.117415   -1.269766
     56          1           0       -0.605193   -0.360907    6.036733
     57          1           0        0.693842   -1.528708    5.994119
     58          1           0        1.044264    0.174522    5.823012
     59          1           0        1.371722    0.803412    3.126389
     60          1           0       -1.102452   -2.243697    1.562972
     61          1           0       -1.153909   -2.370283    4.079073
     62          1           0        4.993071    0.503386   -1.240447
     63          1           0        1.014336   -4.479070   -1.006938
     64          1           0       -3.902383   -0.473149   -0.703268
     65          1           0        0.128959    4.365478    0.152062
     66          1           0       -2.188282    4.958651    0.830063
     67          1           0       -2.021107    5.160291   -0.897496
     68          1           0       -3.584548    4.795727   -0.207705
     69          1           0       -4.943223    1.250383   -1.065577
     70          1           0       -5.019237    2.037277    0.472048
     71          1           0       -5.135494    4.167717   -0.542180
     72          1           0       -4.824648    3.496862   -2.108048
     73          1           0       -7.713396    4.900304   -1.136524
     74          1           0       -2.350364   -5.619883   -0.202650
     75          1           0       -2.017060   -5.553156   -1.916570
     76          1           0       -0.699542   -5.659842   -0.773840
     77          1           0       -4.683444   -2.401947   -1.269379
     78          1           0       -4.343660   -4.106224   -1.159017
     79          1           0       -4.039451   -3.803980    1.295156
     80          1           0       -4.567887   -2.170320    1.115699
     81          1           0       -7.674688   -4.191320    0.089666
     82          1           0        4.739287   -1.005638   -3.476245
     83          1           0        4.961131   -2.736604   -3.563473
     84          1           0        3.361580   -2.051680   -3.722793
     85          1           0        2.987165    5.552795   -1.607289
     86          1           0        3.349551    4.137202   -2.565328
     87          1           0        1.688052    4.584597   -2.261478
     88          1           0        5.975065   -3.036122   -1.548277
     89          1           0        6.055206   -1.328739   -1.313439
     90          1           0        6.983249   -2.627857    1.621403
     91          1           0        3.794837    5.199393    0.407781
     92          1           0        2.083033    5.335231    0.626160
     93          1           0        2.568976    4.705674    3.599277
 ---------------------------------------------------------------------

 SCF Done:  E(UPBE1PBE) =  -3812.97414878     A.U. after   63 cycles

 Alpha virt. eigenvalues --    0.99170   0.99301   0.99680   0.99839   1.00233
 Alpha virt. eigenvalues --    1.00612   1.01155   1.01439   1.01904   1.02024
 Alpha virt. eigenvalues --    1.02359   1.02517   1.03123   1.03183   1.03500

  Beta  occ. eigenvalues -- -256.45042 -30.21631 -26.04653 -26.04066 -26.03919
  Beta  occ. eigenvalues --  -19.35350 -19.34528 -19.33108 -19.32606 -19.30022
  Beta  occ. eigenvalues --  -19.29724 -19.26826 -19.26234 -19.25311 -19.25196
  Beta  occ. eigenvalues --  -14.54541 -14.53006 -14.52889 -14.50417 -14.50301
  Beta  occ. eigenvalues --  -14.50272 -10.43921 -10.43820 -10.43459 -10.42412
  Beta  occ. eigenvalues --  -10.41672 -10.41377 -10.39595 -10.39070 -10.39024
  Beta  occ. eigenvalues --  -10.38620 -10.38542 -10.38425 -10.38041 -10.37817
  Beta  occ. eigenvalues --  -10.37736 -10.36423 -10.35971 -10.35863 -10.34612
  Beta  occ. eigenvalues --  -10.34488 -10.34438 -10.34411 -10.34269 -10.34213
  Beta  occ. eigenvalues --  -10.34166 -10.34055 -10.33739 -10.33494 -10.32900
  Beta  occ. eigenvalues --  -10.32882 -10.32716 -10.32679 -10.32415 -10.32277
  Beta  occ. eigenvalues --  -10.32103 -10.31915 -10.31497 -10.31292  -3.56794
  Beta  occ. eigenvalues --   -2.33201  -2.32053  -2.31655  -1.25735  -1.25096
  Beta  occ. eigenvalues --   -1.24072  -1.23543  -1.16272  -1.13129  -1.12236
  Beta  occ. eigenvalues --   -1.11119  -1.10354  -1.10196  -1.09362  -1.09167
  Beta  occ. eigenvalues --   -1.08476  -1.03077  -1.02657  -1.00897  -0.98870
  Beta  occ. eigenvalues --   -0.98178  -0.95772  -0.94328  -0.94207  -0.93219
  Beta  occ. eigenvalues --   -0.93037  -0.90715  -0.90574  -0.90161  -0.89754
  Beta  occ. eigenvalues --   -0.89441  -0.88826  -0.85888  -0.83729  -0.83246
  Beta  occ. eigenvalues --   -0.82738  -0.81904  -0.81527  -0.79817  -0.79364
  Beta  occ. eigenvalues --   -0.78617  -0.78340  -0.77277  -0.75425  -0.74686
  Beta  occ. eigenvalues --   -0.74590  -0.74110  -0.72785  -0.72085  -0.70910
  Beta  occ. eigenvalues --   -0.70284  -0.68432  -0.67960  -0.67131  -0.66637
  Beta  occ. eigenvalues --   -0.66197  -0.65131  -0.64754  -0.64115  -0.63048
  Beta  occ. eigenvalues --   -0.62124  -0.61992  -0.61269  -0.60787  -0.60423
  Beta  occ. eigenvalues --   -0.60031  -0.59895  -0.59376  -0.59251  -0.59205
  Beta  occ. eigenvalues --   -0.58531  -0.58081  -0.57759  -0.57534  -0.57294
  Beta  occ. eigenvalues --   -0.56881  -0.56735  -0.55981  -0.55829  -0.55478
  Beta  occ. eigenvalues --   -0.55295  -0.55229  -0.55068  -0.54756  -0.54348
  Beta  occ. eigenvalues --   -0.53975  -0.53636  -0.53409  -0.53253  -0.52866
  Beta  occ. eigenvalues --   -0.52537  -0.52479  -0.52169  -0.52079  -0.51925
  Beta  occ. eigenvalues --   -0.51802  -0.51778  -0.51185  -0.51041  -0.50790
  Beta  occ. eigenvalues --   -0.50502  -0.49779  -0.49589  -0.49318  -0.49153
  Beta  occ. eigenvalues --   -0.48832  -0.48569  -0.48244  -0.48047  -0.47750
  Beta  occ. eigenvalues --   -0.47434  -0.47134  -0.46943  -0.46626  -0.46480
  Beta  occ. eigenvalues --   -0.46323  -0.45733  -0.45621  -0.45393  -0.44944
  Beta  occ. eigenvalues --   -0.44532  -0.44193  -0.43113  -0.42715  -0.42086
  Beta  occ. eigenvalues --   -0.41613  -0.41259  -0.41034  -0.40717  -0.39578
  Beta  occ. eigenvalues --   -0.39238  -0.37600  -0.37397  -0.36796  -0.36495
  Beta  occ. eigenvalues --   -0.36339  -0.36292  -0.36236  -0.35576  -0.35186
  Beta  occ. eigenvalues --   -0.35073  -0.34720  -0.34295  -0.33598  -0.32896
  Beta  occ. eigenvalues --   -0.32349
  Beta virt. eigenvalues --   -0.25214  -0.20080  -0.19929  -0.16104  -0.15282
  Beta virt. eigenvalues --   -0.13188  -0.11109  -0.10653  -0.09560  -0.08969
  Beta virt. eigenvalues --   -0.08201  -0.08013  -0.07464  -0.06825  -0.06058

 Mulliken charges and spin densities:
               1          2
     1  C   -0.378418  -0.000035
     2  C    0.138782   0.000298
     3  N   -0.206128   0.000074
     4  C   -0.167795   0.000915
     5  C    0.053553   0.000600
     6  N   -0.109539  -0.001473
     7  Fe   0.112230  -0.024103
     8  C   -0.486662  -0.121407
     9  C   -0.516202  -0.162002
    10  C   -0.570182  -0.147059
    11  C   -0.538280  -0.080315
    12  N   -0.187171  -0.091253
    13  C    0.306085   0.162449
    14  C    0.017912   0.013463
    15  C   -0.064487   0.017078
    16  C    0.440016   0.165106
    17  C   -0.387353  -0.002371
    18  C   -0.316784  -0.003229
    19  C   -0.195122   0.001832
    20  C    0.279245   0.000310
    21  O   -0.304959  -0.000013
    22  O   -0.391380   0.000637
    23  N   -0.106260  -0.109902
    24  C    0.303605   0.236609
    25  C   -0.196820  -0.261945
    26  O   -0.329082   0.478287
    27  C    0.522138   0.013156
    28  C   -0.355292  -0.015781
    29  C   -0.213563  -0.011359
    30  C    0.219940   0.000323
    31  O   -0.340509  -0.000209
    32  O   -0.397932   0.000071
    33  C    0.233734   0.162169
    34  N   -0.139426  -0.063648
    35  C    0.382485   0.202385
    36  C   -0.305091  -0.245484
    37  O   -0.328987   0.451605
    38  C    0.723893  -0.000265
    39  C   -0.405761  -0.015053
    40  C   -0.208795  -0.014329
    41  C    0.208500   0.004057
    42  O   -0.356680  -0.000770
    43  O   -0.365694  -0.004328
    44  C    0.045654   0.160072
    45  N   -0.126744  -0.057273
    46  C    0.357440   0.152222
    47  C   -0.094526   0.020020
    48  C   -0.025993   0.006665
    49  C    0.335194   0.168942
    50  C   -0.344489  -0.000668
    51  C   -0.312107  -0.002747
    52  C   -0.220161   0.000148
    53  C    0.320065   0.000037
    54  O   -0.358075   0.000020
    55  O   -0.324726  -0.000020
    56  H    0.151060   0.000021
    57  H    0.152655   0.000023
    58  H    0.148363  -0.000002
    59  H    0.157969  -0.000081
    60  H    0.174960   0.000228
    61  H    0.249775  -0.000023
    62  H    0.149855   0.004445
    63  H    0.142607   0.004889
    64  H    0.151853   0.004814
    65  H    0.160625   0.003016
    66  H    0.151215   0.001348
    67  H    0.154764   0.001159
    68  H    0.123279  -0.000196
    69  H    0.136245   0.000370
    70  H    0.142926   0.002104
    71  H    0.085124  -0.000005
    72  H    0.150563   0.000176
    73  H    0.361243   0.000004
    74  H    0.148039   0.000885
    75  H    0.166808   0.001953
    76  H    0.150746   0.000068
    77  H    0.138840   0.000492
    78  H    0.151587   0.000212
    79  H    0.131539  -0.000049
    80  H    0.137319  -0.000022
    81  H    0.356588   0.000039
    82  H    0.157753  -0.005076
    83  H    0.168219   0.001255
    84  H    0.154489   0.000397
    85  H    0.156382  -0.000804
    86  H    0.174840   0.000180
    87  H    0.147930  -0.004070
    88  H    0.170096  -0.000433
    89  H    0.172602  -0.000464
    90  H    0.360782  -0.000063
    91  H    0.186588   0.000704
    92  H    0.134069  -0.000119
    93  H    0.366407   0.000113
 Sum of Mulliken charges =   1.00000   1.00000

 Dipole moment (field-independent basis, Debye):
    X=             -2.9001    Y=              5.6946    Z=              1.7932  Tot=              6.6374
 Quadrupole moment (field-independent basis, Debye-Ang):
   XX=           -273.5895   YY=           -225.5885   ZZ=           -279.0407
   XY=             -7.2641   XZ=              3.8331   YZ=              9.8054

 Summary of Natural Population Analysis:

                                       Natural Population
                Natural  -----------------------------------------------
    Atom  No    Charge         Core      Valence    Rydberg      Total
 -----------------------------------------------------------------------
      C    1   -0.32177      0.99969     2.31884    0.00324     3.32177
      C    2    0.06174      0.99956     1.93090    0.00780     2.93826
      N    3   -0.23892      0.99968     2.72920    0.01004     3.73892
      C    4   -0.04073      0.99945     2.03199    0.00929     3.04073
      C    5    0.09590      0.99970     1.89426    0.01014     2.90410
      N    6   -0.20534      0.99970     2.68407    0.02157     3.70534
     Fe    7    0.29476      8.99570     3.69714    0.01240    12.70524
      C    8   -0.16494      0.99946     2.15744    0.00803     3.16494
      C    9   -0.16201      0.99949     2.15460    0.00792     3.16201
      C   10   -0.19235      0.99947     2.18423    0.00865     3.19235
      C   11   -0.17957      0.99946     2.17180    0.00832     3.17957
      N   12   -0.26362      0.99970     2.74074    0.02317     3.76362
      C   13    0.17106      0.99951     1.81897    0.01046     2.82894
      C   14   -0.00014      0.99935     1.99126    0.00953     3.00014
      C   15    0.00748      0.99934     1.98494    0.00823     2.99252
      C   16    0.16486      0.99953     1.82518    0.01042     2.83514
      C   17   -0.31914      0.99969     2.31578    0.00367     3.31914
      C   18   -0.21318      0.99967     2.20730    0.00621     3.21318
      C   19   -0.24979      0.99961     2.24204    0.00813     3.24979
      C   20    0.38074      0.99975     1.60247    0.01705     2.61926
      O   21   -0.31746      0.99981     3.30447    0.01317     4.31746
      O   22   -0.30289      0.99991     3.29206    0.01092     4.30289
      N   23   -0.25240      0.99971     2.72860    0.02408     3.75240
      C   24    0.16423      0.99946     1.82475    0.01156     2.83577
      C   25    0.11618      0.99907     1.87171    0.01304     2.88382
      O   26    0.00195      0.99997     2.99537    0.00271     3.99805
      C   27   -0.12665      0.99933     2.11401    0.01331     3.12665
      C   28   -0.27784      0.99967     2.27255    0.00561     3.27784
      C   29   -0.25079      0.99938     2.24084    0.01057     3.25079
      C   30    0.37045      0.99941     1.61354    0.01659     2.62955
      O   31   -0.32025      0.99983     3.30759    0.01284     4.32025
      O   32   -0.30597      0.99990     3.29464    0.01143     4.30597
      C   33    0.23632      0.99953     1.75274    0.01141     2.76368
      N   34   -0.23939      0.99970     2.71619    0.02349     3.73939
      C   35    0.15982      0.99948     1.82901    0.01169     2.84018
      C   36    0.12654      0.99907     1.86096    0.01343     2.87346
      O   37   -0.01169      0.99997     3.00897    0.00275     4.01169
      C   38   -0.12847      0.99931     2.11633    0.01283     3.12847
      C   39   -0.28209      0.99967     2.27641    0.00601     3.28209
      C   40   -0.24925      0.99938     2.23879    0.01108     3.24925
      C   41    0.36220      0.99939     1.62132    0.01709     2.63780
      O   42   -0.33242      0.99981     3.31898    0.01362     4.33242
      O   43   -0.28967      0.99991     3.27876    0.01101     4.28967
      C   44    0.22149      0.99954     1.76826    0.01070     2.77851
      N   45   -0.24900      0.99968     2.72716    0.02216     3.74900
      C   46    0.18781      0.99954     1.80252    0.01013     2.81219
      C   47    0.00313      0.99938     1.98969    0.00781     2.99687
      C   48    0.00568      0.99937     1.98551    0.00944     2.99432
      C   49    0.18284      0.99953     1.80748    0.01015     2.81716
      C   50   -0.31891      0.99969     2.31573    0.00349     3.31891
      C   51   -0.21378      0.99966     2.20697    0.00716     3.21378
      C   52   -0.25417      0.99961     2.24598    0.00859     3.25417
      C   53    0.38776      0.99974     1.59545    0.01706     2.61224
      O   54   -0.34215      0.99980     3.32794    0.01440     4.34215
      O   55   -0.27553      0.99989     3.26396    0.01167     4.27553
      H   56    0.11425      0.00000     0.38507    0.00068     0.38575
      H   57    0.11542      0.00000     0.38389    0.00068     0.38458
      H   58    0.12017      0.00000     0.37934    0.00048     0.37983
      H   59    0.11736      0.00000     0.38206    0.00057     0.38264
      H   60    0.10973      0.00000     0.38898    0.00129     0.39027
      H   61    0.21316      0.00000     0.28599    0.00085     0.28684
      H   62    0.13064      0.00000     0.36843    0.00094     0.36936
      H   63    0.13079      0.00000     0.36812    0.00108     0.36921
      H   64    0.11975      0.00000     0.37911    0.00114     0.38025
      H   65    0.12000      0.00000     0.37884    0.00116     0.38000
      H   66    0.11521      0.00000     0.38410    0.00069     0.38479
      H   67    0.11498      0.00000     0.38433    0.00068     0.38502
      H   68    0.11115      0.00000     0.38803    0.00081     0.38885
      H   69    0.11709      0.00000     0.38208    0.00084     0.38291
      H   70    0.11830      0.00000     0.38095    0.00075     0.38170
      H   71    0.10575      0.00000     0.39341    0.00084     0.39425
      H   72    0.12067      0.00000     0.37863    0.00070     0.37933
      H   73    0.26072      0.00000     0.23821    0.00107     0.23928
      H   74    0.11564      0.00000     0.38373    0.00064     0.38436
      H   75    0.12037      0.00000     0.37897    0.00067     0.37963
      H   76    0.11341      0.00000     0.38605    0.00054     0.38659
      H   77    0.11073      0.00000     0.38834    0.00092     0.38927
      H   78    0.11663      0.00000     0.38240    0.00097     0.38337
      H   79    0.11780      0.00000     0.38156    0.00064     0.38220
      H   80    0.11868      0.00000     0.38070    0.00062     0.38132
      H   81    0.26014      0.00000     0.23859    0.00128     0.23986
      H   82    0.11144      0.00000     0.38807    0.00049     0.38856
      H   83    0.12050      0.00000     0.37898    0.00052     0.37950
      H   84    0.11445      0.00000     0.38509    0.00046     0.38555
      H   85    0.11609      0.00000     0.38341    0.00050     0.38391
      H   86    0.12336      0.00000     0.37615    0.00049     0.37664
      H   87    0.11184      0.00000     0.38765    0.00051     0.38816
      H   88    0.14127      0.00000     0.35804    0.00069     0.35873
      H   89    0.13247      0.00000     0.36698    0.00055     0.36753
      H   90    0.26055      0.00000     0.23838    0.00107     0.23945
      H   91    0.14862      0.00000     0.35079    0.00059     0.35138
      H   92    0.11709      0.00000     0.38237    0.00054     0.38291
      H   93    0.26304      0.00000     0.23593    0.00103     0.23696
 =======================================================================
   * Total *    1.00000     62.97363   142.38016    0.64621   206.00000

 Normal termination of Gaussian 16 at Thu Dec 29 11:30:39 2022.
