 Gaussian 16, Revision A.03,
 Gaussian 16:  ES64L-G16RevA.03 25-Dec-2016

 ---------------------------------------------------------------------
 # polar def2tzvp empiricaldispersion=gd3bj int=grid=ultrafine pbe1pbe
 ---------------------------------------------------------------------

 ----------
 1h9xc_II_S
 ----------
 Symbolic Z-matrix:
 Charge =  0 Multiplicity = 1

                         Standard orientation:
 ---------------------------------------------------------------------
 Center     Atomic      Atomic             Coordinates (Angstroms)
 Number     Number       Type             X           Y           Z
 ---------------------------------------------------------------------
      1          6           0        2.452058   -1.025755    5.162792
      2          6           0        1.651891   -0.747677    3.922044
      3          7           0        0.287472   -0.647492    3.938764
      4          6           0        2.053335   -0.557297    2.631070
      5          6           0       -0.142303   -0.420604    2.704951
      6          7           0        0.895433   -0.353022    1.893339
      7          6           0       -1.120115    2.256990   -2.849099
      8          6           0       -0.679046    0.827008   -3.006187
      9         16           0        0.902632    0.346249   -2.272776
     10          6           0        1.028229   -1.247212   -3.112209
     11         26           0        0.905995   -0.028162   -0.102785
     12          6           0       -2.555194   -0.237735   -0.066721
     13          6           0        1.086365   -3.392107   -0.438190
     14          6           0        4.341598    0.213047   -0.352527
     15          6           0        0.736012    3.291606    0.606570
     16          7           0       -0.459664   -1.528184   -0.231341
     17          6           0       -1.834547   -1.395853   -0.230853
     18          6           0       -2.414215   -2.704771   -0.476950
     19          6           0       -1.434013   -3.585160   -0.574254
     20          6           0       -0.181638   -2.856354   -0.385035
     21          6           0       -1.497299   -5.113436   -0.811885
     22          6           0       -3.955139   -2.924531   -0.561216
     23          6           0       -4.549534   -3.178120    0.847475
     24          6           0       -6.053472   -3.106719    0.932687
     25          8           0       -6.586405   -3.449749    2.019128
     26          8           0       -6.693297   -2.702060   -0.057804
     27          7           0        2.383633   -1.315745   -0.322869
     28          6           0        2.278889   -2.698120   -0.437836
     29          6           0        3.586049   -3.274901   -0.588205
     30          6           0        4.466710   -2.273378   -0.584226
     31          6           0        3.754952   -1.041904   -0.425214
     32          6           0        3.858985   -4.795998   -0.728660
     33          6           0        6.024239   -2.449625   -0.721721
     34          6           0        6.581937   -2.815249   -1.954284
     35          7           0        2.262186    1.460362    0.079747
     36          6           0        3.635625    1.366373   -0.077661
     37          6           0        4.222408    2.672233    0.140906
     38          6           0        3.226885    3.520363    0.383575
     39          6           0        1.987112    2.772465    0.388451
     40          6           0        5.745513    2.969719    0.076905
     41          6           0        3.398795    5.041595    0.760275
     42          6           0        3.992626    5.892584   -0.111362
     43          7           0       -0.583712    1.226473    0.196148
     44          6           0       -0.451957    2.597621    0.501518
     45          6           0       -1.746246    3.176906    0.652968
     46          6           0       -2.641485    2.207424    0.478892
     47          6           0       -1.943602    0.989472    0.172102
     48          6           0       -2.026241    4.674407    0.973821
     49          6           0       -4.206384    2.349507    0.532670
     50          6           0       -4.720322    2.587285   -0.905065
     51          6           0       -6.172405    2.907730   -1.098575
     52          8           0       -6.585478    2.911998   -2.289814
     53          8           0       -6.882843    3.168567   -0.096734
     54          1           0        1.954399   -1.297283   -3.645691
     55          1           0        0.989969   -2.035158   -2.389314
     56          1           0        0.214756   -1.353575   -3.799122
     57          1           0       -1.222541    2.706755   -3.814562
     58          1           0       -2.060999    2.286195   -2.340390
     59          1           0       -0.390456    2.794899   -2.280635
     60          1           0       -1.437646    0.204114   -2.580241
     61          1           0       -0.629359    0.615307   -4.053857
     62          1           0        3.444890   -0.646331    5.039411
     63          1           0        1.988993   -0.547483    6.000483
     64          1           0        2.492186   -2.081502    5.332165
     65          1           0        3.057796   -0.564171    2.262409
     66          1           0       -0.291605   -0.731686    4.749678
     67          1           0       -1.166164   -0.310117    2.414434
     68          1           0       -6.403641   -4.315690    2.391075
     69          1           0       -4.240981   -4.150003    1.171727
     70          1           0       -4.140698   -2.452826    1.519563
     71          1           0       -4.156960   -3.769300   -1.186144
     72          1           0       -4.412413   -2.055096   -0.985345
     73          1           0       -3.622772   -0.280678   -0.124449
     74          1           0       -4.472307    3.179819    1.152965
     75          1           0       -4.636936    1.452451    0.926135
     76          1           0       -4.153405    3.393591   -1.321449
     77          1           0       -4.505105    1.707391   -1.474599
     78          1           0       -7.213034    4.059772    0.038648
     79          1           0       -0.617376   -5.430298   -1.331726
     80          1           0       -1.556781   -5.618600    0.129481
     81          1           0       -2.361485   -5.347821   -1.397672
     82          1           0       -2.076440    5.231293    0.061539
     83          1           0       -2.956680    4.759514    1.495300
     84          1           0       -1.238037    5.061608    1.585138
     85          1           0        0.676354    4.323843    0.881941
     86          1           0        1.153551   -4.458984   -0.484655
     87          1           0        4.793373   -4.946090   -1.227951
     88          1           0        3.897981   -5.242569    0.242913
     89          1           0        3.073802   -5.248190   -1.297789
     90          1           0        5.395847    0.290723   -0.518131
     91          1           0        5.977349    3.444786   -0.853398
     92          1           0        6.016871    3.616434    0.885004
     93          1           0        6.291584    2.052874    0.155019
     94          1           0        3.046608    5.402133    1.704138
     95          1           0        3.655953    5.678570   -1.104211
     96          1           0        3.736258    6.899837    0.142835
     97          1           0        5.054525    5.771242   -0.060912
     98          1           0        6.657571   -2.290315    0.125870
     99          1           0        5.811351   -3.182147   -2.599639
    100          1           0        7.046490   -1.962017   -2.402711
    101          1           0        7.313785   -3.580745   -1.801593
 ---------------------------------------------------------------------

 SCF Done:  E(RPBE1PBE) =  -3880.49193831     A.U. after   41 cycles

 The electronic state is 1-A.
 Alpha  occ. eigenvalues -- -256.30612 -89.01394 -30.07661 -25.90446 -25.90117
 Alpha  occ. eigenvalues --  -25.90066 -19.26471 -19.25605 -19.18386 -19.17520
 Alpha  occ. eigenvalues --  -14.44650 -14.38703 -14.36744 -14.36731 -14.36548
 Alpha  occ. eigenvalues --  -14.36389 -10.35473 -10.34965 -10.27652 -10.25968
 Alpha  occ. eigenvalues --  -10.24084 -10.24005 -10.23845 -10.23788 -10.23749
 Alpha  occ. eigenvalues --  -10.23737 -10.23623 -10.23599 -10.23385 -10.23322
 Alpha  occ. eigenvalues --  -10.22972 -10.22794 -10.22684 -10.22625 -10.22389
 Alpha  occ. eigenvalues --  -10.22325 -10.22323 -10.21744 -10.21568 -10.21521
 Alpha  occ. eigenvalues --  -10.21497 -10.21467 -10.21466 -10.21419 -10.21386
 Alpha  occ. eigenvalues --  -10.21384 -10.21228 -10.21115 -10.21105 -10.20958
 Alpha  occ. eigenvalues --  -10.20925 -10.20849 -10.20738 -10.20620 -10.20073
 Alpha  occ. eigenvalues --  -10.19824 -10.18960  -7.99191  -5.92839  -5.92563
 Alpha  occ. eigenvalues --   -5.92021  -3.42058  -2.18057  -2.17384  -2.17276
 Alpha  occ. eigenvalues --   -1.16912  -1.16164  -1.06322  -1.03294  -1.01738
 Alpha  occ. eigenvalues --   -0.97119  -0.96218  -0.95759  -0.94921  -0.90681
 Alpha  occ. eigenvalues --   -0.83329  -0.82980  -0.82766  -0.82607  -0.82475
 Alpha  occ. eigenvalues --   -0.81620  -0.81164  -0.80521  -0.80138  -0.78841
 Alpha  occ. eigenvalues --   -0.78399  -0.77797  -0.77401  -0.75709  -0.75097
 Alpha  occ. eigenvalues --   -0.73728  -0.72586  -0.72321  -0.71553  -0.70873
 Alpha  occ. eigenvalues --   -0.69880  -0.69421  -0.68780  -0.66337  -0.66018
 Alpha  occ. eigenvalues --   -0.65876  -0.64812  -0.64702  -0.64579  -0.62237
 Alpha  occ. eigenvalues --   -0.61183  -0.60776  -0.59692  -0.58764  -0.57182
 Alpha  occ. eigenvalues --   -0.56443  -0.55428  -0.54279  -0.54241  -0.53554
 Alpha  occ. eigenvalues --   -0.53087  -0.52133  -0.51697  -0.51667  -0.50821
 Alpha  occ. eigenvalues --   -0.50782  -0.50356  -0.48944  -0.48293  -0.48142
 Alpha  occ. eigenvalues --   -0.48029  -0.47904  -0.47680  -0.47619  -0.47505
 Alpha  occ. eigenvalues --   -0.46413  -0.45819  -0.45494  -0.45340  -0.45035
 Alpha  occ. eigenvalues --   -0.44803  -0.44466  -0.44291  -0.44202  -0.43997
 Alpha  occ. eigenvalues --   -0.43855  -0.43689  -0.43369  -0.43125  -0.43060
 Alpha  occ. eigenvalues --   -0.43018  -0.42868  -0.42618  -0.42407  -0.42254
 Alpha  occ. eigenvalues --   -0.42015  -0.41984  -0.41554  -0.40795  -0.40709
 Alpha  occ. eigenvalues --   -0.40276  -0.40017  -0.39715  -0.39670  -0.39275
 Alpha  occ. eigenvalues --   -0.39183  -0.38810  -0.38625  -0.38496  -0.38119
 Alpha  occ. eigenvalues --   -0.37886  -0.37525  -0.37244  -0.37161  -0.36892
 Alpha  occ. eigenvalues --   -0.36360  -0.36290  -0.35855  -0.35737  -0.35344
 Alpha  occ. eigenvalues --   -0.34991  -0.34593  -0.34136  -0.33809  -0.33279
 Alpha  occ. eigenvalues --   -0.33045  -0.32985  -0.32675  -0.32303  -0.31974
 Alpha  occ. eigenvalues --   -0.31745  -0.31323  -0.30129  -0.29005  -0.28198
 Alpha  occ. eigenvalues --   -0.27843  -0.27797  -0.27176  -0.26185  -0.25172
 Alpha  occ. eigenvalues --   -0.24425  -0.24315  -0.23313  -0.23066  -0.19770
 Alpha  occ. eigenvalues --   -0.18851  -0.18376  -0.18159  -0.18002  -0.12800
 Alpha virt. eigenvalues --   -0.10817  -0.06355  -0.05936  -0.01304  -0.00992
 Alpha virt. eigenvalues --    0.00044   0.01496   0.02398   0.02526   0.02834
 Alpha virt. eigenvalues --    0.03752   0.03928   0.04472   0.04584   0.04884

 Mulliken charges:
               1
     1  C   -0.383812
     2  C    0.169921
     3  N   -0.224653
     4  C   -0.213746
     5  C    0.010491
     6  N    0.049443
     7  C   -0.328823
     8  C   -0.194509
     9  S    0.058524
    10  C   -0.328491
    11  Fe  -0.489967
    12  C   -0.644842
    13  C   -0.526915
    14  C   -0.504027
    15  C   -0.553395
    16  N    0.044218
    17  C    0.275881
    18  C   -0.007485
    19  C   -0.053349
    20  C    0.221856
    21  C   -0.409578
    22  C   -0.302844
    23  C   -0.295758
    24  C    0.325351
    25  O   -0.331105
    26  O   -0.341529
    27  N    0.047369
    28  C    0.206119
    29  C   -0.025495
    30  C    0.026514
    31  C    0.153231
    32  C   -0.391335
    33  C   -0.358100
    34  C   -0.311856
    35  N    0.067928
    36  C    0.317104
    37  C   -0.070794
    38  C    0.016546
    39  C    0.252770
    40  C   -0.414755
    41  C   -0.332420
    42  C   -0.289559
    43  N    0.107083
    44  C    0.299192
    45  C   -0.036327
    46  C    0.038563
    47  C    0.131205
    48  C   -0.416320
    49  C   -0.258899
    50  C   -0.253162
    51  C    0.298764
    52  O   -0.349335
    53  O   -0.353547
    54  H    0.137001
    55  H    0.155011
    56  H    0.135977
    57  H    0.122361
    58  H    0.092750
    59  H    0.138387
    60  H    0.139601
    61  H    0.133728
    62  H    0.148576
    63  H    0.122575
    64  H    0.143084
    65  H    0.156812
    66  H    0.228550
    67  H    0.172143
    68  H    0.346418
    69  H    0.120881
    70  H    0.144879
    71  H    0.121350
    72  H    0.149421
    73  H    0.128712
    74  H    0.096227
    75  H    0.122529
    76  H    0.144212
    77  H    0.143319
    78  H    0.353598
    79  H    0.133872
    80  H    0.133995
    81  H    0.133984
    82  H    0.145766
    83  H    0.122738
    84  H    0.133629
    85  H    0.094727
    86  H    0.104399
    87  H    0.139202
    88  H    0.136000
    89  H    0.126406
    90  H    0.114593
    91  H    0.145130
    92  H    0.137336
    93  H    0.123999
    94  H    0.133471
    95  H    0.141285
    96  H    0.121110
    97  H    0.130304
    98  H    0.134728
    99  H    0.133980
   100  H    0.138746
   101  H    0.121156
 Sum of Mulliken charges =  -0.00000

 Dipole moment (field-independent basis, Debye):
    X=              2.6842    Y=             -1.5808    Z=              8.1617  Tot=              8.7360
 Quadrupole moment (field-independent basis, Debye-Ang):
   XX=           -353.2256   YY=           -281.5430   ZZ=           -300.9237
   XY=              0.6490   XZ=            -33.0920   YZ=             -2.5597

  Exact polarizability: 901.783 -72.1111012.967 -30.658  87.217 449.395
 Approx polarizability:2490.629********9591.901-574.5671704.8441011.733

 Normal termination of Gaussian 16 at Sat Sep  3 03:32:42 2022.
