 Gaussian 16, Revision A.03,
 Gaussian 16:  ES64L-G16RevA.03 25-Dec-2016

 ----------------------------------------------------------------------
 # PBE1PBE/def2TZVP empiricaldispersion=GD3BJ scf=maxcycle=999 geom=che
 ck pop=nbo
 ----------------------------------------------------------------------

 -----------
 1h9xd_III_H
 -----------
 Structure from the checkpoint file:  "1h9xd_III_H.chk"
 Charge =  1 Multiplicity = 6

                         Standard orientation:
 ---------------------------------------------------------------------
 Center     Atomic      Atomic             Coordinates (Angstroms)
 Number     Number       Type             X           Y           Z
 ---------------------------------------------------------------------
      1          6           0        0.340892   -0.599667    5.597624
      2          6           0        0.186257   -0.717370    4.109296
      3          7           0       -0.624124   -1.698366    3.561525
      4          6           0        0.699828   -0.026906    3.062897
      5          6           0       -0.583537   -1.602257    2.244281
      6          7           0        0.201557   -0.585497    1.894054
      7         26           0        0.611459   -0.087848   -0.189557
      8          6           0       -2.837475   -0.377080   -0.662748
      9          6           0        0.889429   -3.416501   -0.991310
     10          6           0        3.943717    0.372308   -1.077430
     11          6           0        0.237820    3.336506   -0.120456
     12          7           0       -0.695994   -1.572565   -0.794608
     13          6           0       -2.073056   -1.510591   -0.771672
     14          6           0       -2.627815   -2.850449   -0.786828
     15          6           0       -1.612096   -3.707399   -0.875289
     16          6           0       -0.394241   -2.918845   -0.893653
     17          6           0       -1.674609   -5.254973   -0.947697
     18          6           0       -4.156995   -3.150684   -0.715172
     19          6           0       -4.682118   -3.161800    0.729927
     20          6           0       -6.101008   -3.589721    1.012528
     21          8           0       -6.726965   -4.049927    0.031102
     22          8           0       -6.548602   -3.477043    2.213815
     23          7           0        2.097267   -1.252607   -0.939232
     24          6           0        2.028625   -2.627859   -1.070545
     25          6           0        3.322142   -3.133769   -1.435957
     26          8           0        3.587413   -4.620604   -1.689423
     27          6           0        4.109297   -2.058843   -1.679010
     28          6           0        4.308739   -1.954896   -3.234508
     29          6           0        5.502538   -2.209324   -1.060400
     30          6           0        5.643063   -2.394974    0.241403
     31          8           0        6.768709   -2.768621    0.696331
     32          8           0        4.773045   -2.257382    1.133712
     33          6           0        3.422718   -0.903869   -1.149243
     34          7           0        1.817901    1.524250   -0.561253
     35          6           0        3.171352    1.496429   -0.803495
     36          6           0        3.708281    2.844107   -0.759892
     37          8           0        5.187375    3.145340   -0.970942
     38          6           0        2.676012    3.686430   -0.560647
     39          6           0        2.675126    4.558328   -1.849295
     40          6           0        2.901152    4.645863    0.607361
     41          6           0        3.013657    4.118966    1.816995
     42          8           0        2.222951    4.424412    2.749126
     43          8           0        3.922718    3.275107    2.097198
     44          6           0        1.499909    2.846735   -0.343008
     45          7           0       -0.962523    1.193529   -0.428967
     46          6           0       -0.902009    2.556747   -0.233209
     47          6           0       -2.245798    3.115890   -0.274225
     48          6           0       -3.095859    2.096648   -0.435292
     49          6           0       -2.294124    0.883846   -0.502979
     50          6           0       -2.531784    4.622769   -0.126017
     51          6           0       -4.637736    2.121232   -0.524098
     52          6           0       -5.306828    3.318162   -1.169716
     53          6           0       -6.789094    3.222493   -1.422978
     54          8           0       -7.377406    4.284925   -1.792283
     55          8           0       -7.355000    2.117415   -1.269766
     56          1           0       -0.605193   -0.360907    6.036733
     57          1           0        0.693842   -1.528708    5.994119
     58          1           0        1.044264    0.174522    5.823012
     59          1           0        1.371722    0.803412    3.126389
     60          1           0       -1.102452   -2.243697    1.562972
     61          1           0       -1.153909   -2.370283    4.079073
     62          1           0        4.993071    0.503386   -1.240447
     63          1           0        1.014336   -4.479070   -1.006938
     64          1           0       -3.902383   -0.473149   -0.703268
     65          1           0        0.128959    4.365478    0.152062
     66          1           0       -2.188282    4.958651    0.830063
     67          1           0       -2.021107    5.160291   -0.897496
     68          1           0       -3.584548    4.795727   -0.207705
     69          1           0       -4.943223    1.250383   -1.065577
     70          1           0       -5.019237    2.037277    0.472048
     71          1           0       -5.135494    4.167717   -0.542180
     72          1           0       -4.824648    3.496862   -2.108048
     73          1           0       -7.713396    4.900304   -1.136524
     74          1           0       -2.350364   -5.619883   -0.202650
     75          1           0       -2.017060   -5.553156   -1.916570
     76          1           0       -0.699542   -5.659842   -0.773840
     77          1           0       -4.683444   -2.401947   -1.269379
     78          1           0       -4.343660   -4.106224   -1.159017
     79          1           0       -4.039451   -3.803980    1.295156
     80          1           0       -4.567887   -2.170320    1.115699
     81          1           0       -7.674688   -4.191320    0.089666
     82          1           0        4.739287   -1.005638   -3.476245
     83          1           0        4.961131   -2.736604   -3.563473
     84          1           0        3.361580   -2.051680   -3.722793
     85          1           0        2.987165    5.552795   -1.607289
     86          1           0        3.349551    4.137202   -2.565328
     87          1           0        1.688052    4.584597   -2.261478
     88          1           0        5.975065   -3.036122   -1.548277
     89          1           0        6.055206   -1.328739   -1.313439
     90          1           0        6.983249   -2.627857    1.621403
     91          1           0        3.794837    5.199393    0.407781
     92          1           0        2.083033    5.335231    0.626160
     93          1           0        2.568976    4.705674    3.599277
 ---------------------------------------------------------------------

 SCF Done:  E(UPBE1PBE) =  -3813.02254834     A.U. after   70 cycles

 Alpha virt. eigenvalues --    0.97725   0.98414   0.98651   0.99084   0.99187
 Alpha virt. eigenvalues --    0.99537   0.99722   1.00103   1.00558   1.01032
 Alpha virt. eigenvalues --    1.01430   1.01707   1.01883   1.02288   1.02475

  Beta  occ. eigenvalues -- -256.43961 -30.16501 -26.00719 -25.99251 -25.99163
  Beta  occ. eigenvalues --  -19.35302 -19.34592 -19.33062 -19.32620 -19.29975
  Beta  occ. eigenvalues --  -19.29747 -19.26773 -19.26296 -19.25266 -19.25228
  Beta  occ. eigenvalues --  -14.55003 -14.51952 -14.51677 -14.50006 -14.48807
  Beta  occ. eigenvalues --  -14.48726 -10.43868 -10.43769 -10.43515 -10.42428
  Beta  occ. eigenvalues --  -10.41645 -10.41252 -10.39575 -10.39082 -10.38940
  Beta  occ. eigenvalues --  -10.38937 -10.38453 -10.38300 -10.37854 -10.37615
  Beta  occ. eigenvalues --  -10.37430 -10.36392 -10.36369 -10.35737 -10.34276
  Beta  occ. eigenvalues --  -10.34256 -10.34244 -10.34181 -10.34178 -10.34095
  Beta  occ. eigenvalues --  -10.34072 -10.33957 -10.33861 -10.33473 -10.32790
  Beta  occ. eigenvalues --  -10.32769 -10.32754 -10.32658 -10.32325 -10.32208
  Beta  occ. eigenvalues --  -10.32041 -10.31835 -10.31564 -10.31384  -3.47747
  Beta  occ. eigenvalues --   -2.23204  -2.22308  -2.22241  -1.25799  -1.25046
  Beta  occ. eigenvalues --   -1.24086  -1.23495  -1.16667  -1.12875  -1.11925
  Beta  occ. eigenvalues --   -1.11067  -1.10312  -1.09777  -1.09317  -1.08692
  Beta  occ. eigenvalues --   -1.08432  -1.03017  -1.02527  -1.01288  -0.98794
  Beta  occ. eigenvalues --   -0.98054  -0.95587  -0.94161  -0.93999  -0.93021
  Beta  occ. eigenvalues --   -0.92813  -0.91088  -0.90551  -0.90071  -0.89615
  Beta  occ. eigenvalues --   -0.89297  -0.88584  -0.85728  -0.83615  -0.83148
  Beta  occ. eigenvalues --   -0.82625  -0.82249  -0.81394  -0.79667  -0.79248
  Beta  occ. eigenvalues --   -0.78468  -0.78180  -0.77283  -0.75369  -0.75042
  Beta  occ. eigenvalues --   -0.74584  -0.74030  -0.72622  -0.72518  -0.70575
  Beta  occ. eigenvalues --   -0.70200  -0.68265  -0.67835  -0.67076  -0.66821
  Beta  occ. eigenvalues --   -0.66052  -0.64873  -0.64533  -0.63991  -0.62914
  Beta  occ. eigenvalues --   -0.62064  -0.61910  -0.61170  -0.60694  -0.60301
  Beta  occ. eigenvalues --   -0.59946  -0.59786  -0.59241  -0.59140  -0.59102
  Beta  occ. eigenvalues --   -0.58354  -0.58061  -0.57913  -0.57790  -0.57295
  Beta  occ. eigenvalues --   -0.56787  -0.56642  -0.55875  -0.55684  -0.55397
  Beta  occ. eigenvalues --   -0.55193  -0.55063  -0.54959  -0.54669  -0.54278
  Beta  occ. eigenvalues --   -0.54088  -0.53555  -0.53261  -0.53091  -0.52859
  Beta  occ. eigenvalues --   -0.52665  -0.52381  -0.52203  -0.52084  -0.51886
  Beta  occ. eigenvalues --   -0.51718  -0.51617  -0.51135  -0.50974  -0.50669
  Beta  occ. eigenvalues --   -0.50541  -0.49627  -0.49393  -0.49115  -0.49057
  Beta  occ. eigenvalues --   -0.48648  -0.48480  -0.48060  -0.47893  -0.47579
  Beta  occ. eigenvalues --   -0.47340  -0.47011  -0.46837  -0.46421  -0.46323
  Beta  occ. eigenvalues --   -0.45938  -0.45746  -0.45299  -0.44992  -0.44887
  Beta  occ. eigenvalues --   -0.44498  -0.43503  -0.42666  -0.42291  -0.41981
  Beta  occ. eigenvalues --   -0.41578  -0.41266  -0.40861  -0.40646  -0.39551
  Beta  occ. eigenvalues --   -0.39192  -0.37311  -0.36929  -0.36438  -0.36297
  Beta  occ. eigenvalues --   -0.36241  -0.36097  -0.35997  -0.35562  -0.35042
  Beta  occ. eigenvalues --   -0.34893  -0.34747  -0.33214  -0.29710
  Beta virt. eigenvalues --   -0.25064  -0.20325  -0.19994  -0.16036  -0.14018
  Beta virt. eigenvalues --   -0.11503  -0.11198  -0.10899  -0.09920  -0.09530
  Beta virt. eigenvalues --   -0.09160  -0.08003  -0.07920  -0.07423  -0.06834

 Mulliken charges and spin densities:
               1          2
     1  C   -0.377707   0.000709
     2  C    0.133128   0.001549
     3  N   -0.203099   0.002399
     4  C   -0.160546   0.006882
     5  C    0.061136   0.011855
     6  N   -0.174784   0.004364
     7  Fe   0.268351   3.794400
     8  C   -0.490451  -0.118385
     9  C   -0.522388  -0.157167
    10  C   -0.576051  -0.138374
    11  C   -0.545104  -0.073052
    12  N   -0.229922  -0.067293
    13  C    0.310921   0.176533
    14  C    0.016396   0.013677
    15  C   -0.061378   0.027313
    16  C    0.441691   0.172405
    17  C   -0.387637  -0.002169
    18  C   -0.316436  -0.003104
    19  C   -0.195507   0.001916
    20  C    0.279467   0.000346
    21  O   -0.304781  -0.000011
    22  O   -0.392120   0.000621
    23  N   -0.130627  -0.098728
    24  C    0.307392   0.243544
    25  C   -0.200811  -0.262586
    26  O   -0.328181   0.483046
    27  C    0.527781   0.014866
    28  C   -0.356107  -0.017782
    29  C   -0.215142  -0.009839
    30  C    0.221299   0.000441
    31  O   -0.340127  -0.000184
    32  O   -0.400562  -0.000025
    33  C    0.239264   0.162344
    34  N   -0.155418  -0.059733
    35  C    0.388199   0.203712
    36  C   -0.305889  -0.247586
    37  O   -0.327994   0.451934
    38  C    0.726361   0.001406
    39  C   -0.406318  -0.015566
    40  C   -0.208790  -0.013938
    41  C    0.207252   0.004132
    42  O   -0.356659  -0.000725
    43  O   -0.366649  -0.004256
    44  C    0.047641   0.166644
    45  N   -0.167650  -0.043515
    46  C    0.366454   0.157017
    47  C   -0.095405   0.026461
    48  C   -0.025081   0.007507
    49  C    0.340886   0.180634
    50  C   -0.344388  -0.001066
    51  C   -0.312050  -0.002109
    52  C   -0.220018   0.000135
    53  C    0.319947   0.000072
    54  O   -0.358124   0.000034
    55  O   -0.324720  -0.000023
    56  H    0.152128   0.000114
    57  H    0.153541   0.000122
    58  H    0.148917  -0.000017
    59  H    0.159388   0.000683
    60  H    0.179944   0.000443
    61  H    0.251047   0.000732
    62  H    0.148981   0.003831
    63  H    0.141372   0.004198
    64  H    0.150610   0.004101
    65  H    0.159599   0.002398
    66  H    0.150593   0.001607
    67  H    0.154841   0.001400
    68  H    0.123045  -0.000092
    69  H    0.136794   0.000356
    70  H    0.142149   0.002086
    71  H    0.084925  -0.000011
    72  H    0.150574   0.000227
    73  H    0.361118   0.000005
    74  H    0.147311   0.001200
    75  H    0.166813   0.002303
    76  H    0.150611   0.000077
    77  H    0.138926   0.000509
    78  H    0.151104   0.000332
    79  H    0.130717  -0.000062
    80  H    0.136936   0.000007
    81  H    0.356448   0.000039
    82  H    0.157853  -0.004990
    83  H    0.168508   0.001033
    84  H    0.155381   0.000489
    85  H    0.156818  -0.000914
    86  H    0.175135   0.000184
    87  H    0.148779  -0.003961
    88  H    0.169711  -0.000107
    89  H    0.172726  -0.000560
    90  H    0.360473  -0.000031
    91  H    0.186452   0.000648
    92  H    0.134365  -0.000171
    93  H    0.366418   0.000112
 Sum of Mulliken charges =   1.00000   5.00000

 Dipole moment (field-independent basis, Debye):
    X=             -2.7375    Y=              5.7186    Z=              2.3332  Tot=              6.7558
 Quadrupole moment (field-independent basis, Debye-Ang):
   XX=           -275.1668   YY=           -227.0729   ZZ=           -278.5421
   XY=             -7.2342   XZ=              4.0350   YZ=              9.3450

 Summary of Natural Population Analysis:

                                       Natural Population
                Natural  -----------------------------------------------
    Atom  No    Charge         Core      Valence    Rydberg      Total
 -----------------------------------------------------------------------
      C    1   -0.32149      0.99969     2.31863    0.00316     3.32149
      C    2    0.06282      0.99956     1.92848    0.00914     2.93718
      N    3   -0.23622      0.99968     2.72651    0.01003     3.73622
      C    4   -0.03949      0.99945     2.03075    0.00929     3.03949
      C    5    0.10640      0.99970     1.88411    0.00979     2.89360
      N    6   -0.22321      0.99973     2.70575    0.01773     3.72321
     Fe    7    2.26315      8.99485     1.72806    0.01394    10.73685
      C    8   -0.16728      0.99946     2.15972    0.00810     3.16728
      C    9   -0.16372      0.99949     2.15627    0.00797     3.16372
      C   10   -0.19387      0.99947     2.18581    0.00858     3.19387
      C   11   -0.18291      0.99945     2.17506    0.00840     3.18291
      N   12   -0.26516      0.99972     2.74707    0.01836     3.76516
      C   13    0.17944      0.99952     1.81072    0.01033     2.82056
      C   14   -0.00137      0.99934     1.99253    0.00950     3.00137
      C   15    0.01282      0.99934     1.97932    0.00851     2.98718
      C   16    0.16680      0.99954     1.82333    0.01034     2.83320
      C   17   -0.31953      0.99969     2.31619    0.00364     3.31953
      C   18   -0.21314      0.99967     2.20725    0.00622     3.21314
      C   19   -0.24971      0.99961     2.24199    0.00811     3.24971
      C   20    0.38082      0.99975     1.60239    0.01705     2.61918
      O   21   -0.31739      0.99981     3.30440    0.01318     4.31739
      O   22   -0.30325      0.99991     3.29242    0.01092     4.30325
      N   23   -0.24840      0.99972     2.73080    0.01788     3.74840
      C   24    0.16672      0.99946     1.82268    0.01114     2.83328
      C   25    0.11525      0.99906     1.87265    0.01304     2.88475
      O   26    0.00511      0.99997     2.99222    0.00270     3.99489
      C   27   -0.12649      0.99933     2.11389    0.01328     3.12649
      C   28   -0.27837      0.99967     2.27306    0.00564     3.27837
      C   29   -0.25063      0.99938     2.24072    0.01054     3.25063
      C   30    0.37109      0.99941     1.61292    0.01657     2.62891
      O   31   -0.32013      0.99983     3.30747    0.01284     4.32013
      O   32   -0.30707      0.99990     3.29576    0.01141     4.30707
      C   33    0.23913      0.99953     1.75038    0.01096     2.76087
      N   34   -0.23816      0.99972     2.72040    0.01805     3.73816
      C   35    0.16122      0.99948     1.82804    0.01126     2.83878
      C   36    0.12554      0.99907     1.86199    0.01340     2.87446
      O   37   -0.01098      0.99997     3.00826    0.00275     4.01098
      C   38   -0.12868      0.99931     2.11651    0.01286     3.12868
      C   39   -0.28203      0.99967     2.27633    0.00603     3.28203
      C   40   -0.24930      0.99938     2.23888    0.01104     3.24930
      C   41    0.36253      0.99939     1.62102    0.01706     2.63747
      O   42   -0.33251      0.99981     3.31908    0.01361     4.33251
      O   43   -0.29023      0.99991     3.27933    0.01100     4.29023
      C   44    0.22573      0.99954     1.76438    0.01035     2.77427
      N   45   -0.25254      0.99970     2.73604    0.01681     3.75254
      C   46    0.19152      0.99954     1.79901    0.00993     2.80848
      C   47    0.00637      0.99938     1.98622    0.00803     2.99363
      C   48    0.00645      0.99937     1.98478    0.00941     2.99355
      C   49    0.19014      0.99954     1.80035    0.00997     2.80986
      C   50   -0.31925      0.99969     2.31610    0.00347     3.31925
      C   51   -0.21388      0.99966     2.20707    0.00716     3.21388
      C   52   -0.25412      0.99961     2.24593    0.00858     3.25412
      C   53    0.38777      0.99974     1.59543    0.01706     2.61223
      O   54   -0.34217      0.99980     3.32796    0.01440     4.34217
      O   55   -0.27554      0.99989     3.26397    0.01167     4.27554
      H   56    0.11478      0.00000     0.38457    0.00065     0.38522
      H   57    0.11588      0.00000     0.38346    0.00066     0.38412
      H   58    0.12045      0.00000     0.37907    0.00048     0.37955
      H   59    0.11697      0.00000     0.38222    0.00081     0.38303
      H   60    0.11135      0.00000     0.38746    0.00119     0.38865
      H   61    0.21392      0.00000     0.28528    0.00080     0.28608
      H   62    0.13024      0.00000     0.36880    0.00095     0.36976
      H   63    0.13020      0.00000     0.36870    0.00110     0.36980
      H   64    0.11919      0.00000     0.37965    0.00116     0.38081
      H   65    0.11962      0.00000     0.37920    0.00118     0.38038
      H   66    0.11525      0.00000     0.38407    0.00068     0.38475
      H   67    0.11516      0.00000     0.38416    0.00068     0.38484
      H   68    0.11107      0.00000     0.38812    0.00081     0.38893
      H   69    0.11724      0.00000     0.38193    0.00084     0.38276
      H   70    0.11814      0.00000     0.38111    0.00075     0.38186
      H   71    0.10571      0.00000     0.39345    0.00084     0.39429
      H   72    0.12067      0.00000     0.37863    0.00070     0.37933
      H   73    0.26068      0.00000     0.23825    0.00107     0.23932
      H   74    0.11545      0.00000     0.38390    0.00064     0.38455
      H   75    0.12069      0.00000     0.37864    0.00066     0.37931
      H   76    0.11344      0.00000     0.38602    0.00054     0.38656
      H   77    0.11072      0.00000     0.38835    0.00092     0.38928
      H   78    0.11648      0.00000     0.38255    0.00097     0.38352
      H   79    0.11754      0.00000     0.38182    0.00064     0.38246
      H   80    0.11864      0.00000     0.38073    0.00063     0.38136
      H   81    0.26008      0.00000     0.23864    0.00128     0.23992
      H   82    0.11159      0.00000     0.38792    0.00049     0.38841
      H   83    0.12063      0.00000     0.37885    0.00052     0.37937
      H   84    0.11475      0.00000     0.38480    0.00045     0.38525
      H   85    0.11627      0.00000     0.38324    0.00049     0.38373
      H   86    0.12346      0.00000     0.37605    0.00049     0.37654
      H   87    0.11221      0.00000     0.38728    0.00051     0.38779
      H   88    0.14118      0.00000     0.35814    0.00069     0.35882
      H   89    0.13251      0.00000     0.36694    0.00055     0.36749
      H   90    0.26046      0.00000     0.23847    0.00107     0.23954
      H   91    0.14855      0.00000     0.35086    0.00059     0.35145
      H   92    0.11718      0.00000     0.38228    0.00054     0.38282
      H   93    0.26303      0.00000     0.23594    0.00103     0.23697
 =======================================================================
   * Total *    3.00000     62.97287   140.40593    0.62120   204.00000

 Normal termination of Gaussian 16 at Sat Dec 31 00:42:56 2022.
