 Gaussian 16, Revision A.03,
 Gaussian 16:  ES64L-G16RevA.03 25-Dec-2016

 ---------------------------------------------------------------------
 # polar def2tzvp empiricaldispersion=gd3bj int=grid=ultrafine pbe1pbe
 ---------------------------------------------------------------------

 ---------
 1jp9_II_S
 ---------
 Symbolic Z-matrix:
 Charge =  0 Multiplicity = 1

                         Standard orientation:
 ---------------------------------------------------------------------
 Center     Atomic      Atomic             Coordinates (Angstroms)
 Number     Number       Type             X           Y           Z
 ---------------------------------------------------------------------
      1          6           0       -1.395105    0.237801    5.325101
      2          6           0       -1.115773   -0.209118    3.926321
      3          7           0       -0.355513   -1.322749    3.644721
      4          6           0       -1.442763    0.336271    2.731444
      5          6           0       -0.222377   -1.442615    2.336770
      6          7           0       -0.872166   -0.448993    1.759017
      7         26           0       -0.786576    0.105819   -0.393746
      8          6           0        2.565034   -0.456715   -0.401142
      9          6           0       -1.329263   -3.231035   -0.981568
     10          6           0       -4.153758    0.650501   -0.492792
     11          6           0       -0.234031    3.379598    0.067908
     12          7           0        0.367113   -1.509906   -0.629387
     13          6           0        1.742071   -1.562904   -0.598045
     14          6           0        2.211031   -2.939568   -0.808791
     15          6           0        1.088196   -3.694995   -0.972063
     16          6           0       -0.029732   -2.825295   -0.864554
     17          6           0        1.002304   -5.182531   -1.222759
     18          6           0        3.634099   -3.361492   -0.827449
     19          6           0        4.051759   -4.076796    0.499890
     20          6           0        3.820045   -3.196221    1.695908
     21          8           0        4.468979   -2.151005    1.857717
     22          8           0        2.930600   -3.567113    2.525546
     23          7           0       -2.416450   -1.028173   -0.657083
     24          6           0       -2.441838   -2.402602   -0.888289
     25          6           0       -3.835030   -2.853940   -1.026783
     26          6           0       -4.613287   -1.789311   -0.889544
     27          6           0       -3.722504   -0.663661   -0.667420
     28          6           0       -4.214727   -4.285441   -1.286181
     29          6           0       -6.118641   -1.711723   -0.955716
     30          6           0       -6.789040   -2.373053   -1.930280
     31          7           0       -1.959044    1.717843   -0.226045
     32          6           0       -3.345937    1.764152   -0.294906
     33          6           0       -3.813284    3.113437   -0.151516
     34          6           0       -2.703750    3.868980   -0.001809
     35          6           0       -1.561623    2.984289   -0.041771
     36          6           0       -5.260287    3.514120   -0.190806
     37          6           0       -2.527577    5.348692    0.169132
     38          6           0       -3.611236    6.162226    0.189446
     39          7           0        0.856109    1.260233   -0.184741
     40          6           0        0.890324    2.601096    0.003905
     41          6           0        2.222846    3.075334    0.104050
     42          6           0        3.031684    1.969985   -0.038249
     43          6           0        2.161108    0.836073   -0.217006
     44          6           0        2.630054    4.504737    0.310798
     45          6           0        4.531444    1.961309   -0.021945
     46          6           0        5.057331    2.147052   -1.479451
     47          6           0        6.548308    2.148766   -1.587869
     48          8           0        7.299647    2.536633   -0.659147
     49          8           0        7.025969    1.736381   -2.678535
     50          8           0       -0.761310    0.686228   -2.458533
     51          1           0        2.015113   -3.641731    2.246411
     52          1           0        5.089999   -4.330404    0.448497
     53          1           0        3.477814   -4.973174    0.609398
     54          1           0        4.250705   -2.498016   -0.965671
     55          1           0        3.786781   -4.032627   -1.646696
     56          1           0        8.102206    3.022678   -0.862271
     57          1           0        4.672614    1.352691   -2.084334
     58          1           0        4.686981    3.076189   -1.859510
     59          1           0        4.887631    2.761898    0.592130
     60          1           0        4.880032    1.028037    0.368427
     61          1           0        2.592098    5.025098   -0.623378
     62          1           0        1.961481    4.969190    1.005199
     63          1           0        3.626945    4.539167    0.697996
     64          1           0        1.805627   -5.483411   -1.862324
     65          1           0        1.072292   -5.705713   -0.292016
     66          1           0        0.068169   -5.411883   -1.691469
     67          1           0        3.619704   -0.637013   -0.393211
     68          1           0       -1.504967   -4.271398   -1.159537
     69          1           0       -0.069536    4.425589    0.222002
     70          1           0       -5.210322    0.818318   -0.513088
     71          1           0       -3.528987   -4.715095   -1.986223
     72          1           0       -4.179692   -4.835535   -0.369082
     73          1           0       -5.205712   -4.324423   -1.687837
     74          1           0       -6.656880   -1.134546   -0.233175
     75          1           0       -6.333630   -2.520918   -2.887170
     76          1           0       -7.773764   -2.747340   -1.742859
     77          1           0       -5.601840    3.518194   -1.204820
     78          1           0       -5.839108    2.816519    0.377716
     79          1           0       -5.370754    4.493094    0.226695
     80          1           0       -1.546296    5.761939    0.275036
     81          1           0       -3.976246    6.589962   -0.720889
     82          1           0       -4.101829    6.376818    1.115820
     83          1           0        0.319932   -2.213891    1.830869
     84          1           0        0.034621   -1.943452    4.324812
     85          1           0       -2.034315    1.213836    2.573818
     86          1           0       -1.510781    1.301373    5.343326
     87          1           0       -2.294454   -0.224823    5.674458
     88          1           0       -0.580033   -0.043232    5.958803
     89          1           0       -0.000853    0.841645   -3.023466
     90          1           0       -0.467646    0.325895   -1.618580
 ---------------------------------------------------------------------

 SCF Done:  E(RPBE1PBE) =  -3438.49179779     A.U. after   28 cycles

 The electronic state is 1-A.
 Alpha  occ. eigenvalues -- -256.33129 -30.09720 -25.92711 -25.92180 -25.92029
 Alpha  occ. eigenvalues --  -19.26323 -19.26088 -19.20689 -19.18908 -19.16858
 Alpha  occ. eigenvalues --  -14.45860 -14.40107 -14.37980 -14.37738 -14.37647
 Alpha  occ. eigenvalues --  -14.36865 -10.35797 -10.34848 -10.29294 -10.27094
 Alpha  occ. eigenvalues --  -10.25107 -10.24879 -10.24688 -10.24572 -10.24513
 Alpha  occ. eigenvalues --  -10.24513 -10.24491 -10.24242 -10.23847 -10.23826
 Alpha  occ. eigenvalues --  -10.23772 -10.23727 -10.23603 -10.23419 -10.23048
 Alpha  occ. eigenvalues --  -10.22801 -10.22728 -10.22701 -10.22443 -10.22405
 Alpha  occ. eigenvalues --  -10.22333 -10.22310 -10.21968 -10.21965 -10.21959
 Alpha  occ. eigenvalues --  -10.21827 -10.21690 -10.21546 -10.21490 -10.21279
 Alpha  occ. eigenvalues --  -10.21077 -10.20733 -10.20571 -10.19912  -3.45101
 Alpha  occ. eigenvalues --   -2.22242  -2.20213  -2.19789  -1.16626  -1.16373
 Alpha  occ. eigenvalues --   -1.07769  -1.05098  -1.03737  -1.01333  -0.98513
 Alpha  occ. eigenvalues --   -0.97601  -0.97308  -0.96417  -0.91863  -0.84577
 Alpha  occ. eigenvalues --   -0.83953  -0.83548  -0.83012  -0.82749  -0.82549
 Alpha  occ. eigenvalues --   -0.81477  -0.81137  -0.79650  -0.78934  -0.77577
 Alpha  occ. eigenvalues --   -0.76769  -0.75495  -0.74410  -0.73724  -0.73432
 Alpha  occ. eigenvalues --   -0.72337  -0.71705  -0.70176  -0.69684  -0.69387
 Alpha  occ. eigenvalues --   -0.67120  -0.66362  -0.65723  -0.65415  -0.65290
 Alpha  occ. eigenvalues --   -0.63475  -0.61144  -0.60585  -0.59450  -0.59150
 Alpha  occ. eigenvalues --   -0.57908  -0.57811  -0.56608  -0.55338  -0.54558
 Alpha  occ. eigenvalues --   -0.54066  -0.53730  -0.52535  -0.52507  -0.51915
 Alpha  occ. eigenvalues --   -0.51095  -0.50691  -0.50457  -0.49769  -0.49222
 Alpha  occ. eigenvalues --   -0.49149  -0.48960  -0.48808  -0.48505  -0.48368
 Alpha  occ. eigenvalues --   -0.46444  -0.46232  -0.46023  -0.45686  -0.45213
 Alpha  occ. eigenvalues --   -0.45168  -0.44869  -0.44652  -0.44432  -0.44362
 Alpha  occ. eigenvalues --   -0.44256  -0.43966  -0.43689  -0.43521  -0.43445
 Alpha  occ. eigenvalues --   -0.43193  -0.43069  -0.42955  -0.42588  -0.42324
 Alpha  occ. eigenvalues --   -0.42197  -0.41481  -0.41350  -0.41219  -0.40789
 Alpha  occ. eigenvalues --   -0.40265  -0.39763  -0.39563  -0.39357  -0.39259
 Alpha  occ. eigenvalues --   -0.39142  -0.38740  -0.38348  -0.38120  -0.37850
 Alpha  occ. eigenvalues --   -0.37483  -0.36868  -0.36755  -0.36519  -0.36117
 Alpha  occ. eigenvalues --   -0.35831  -0.35598  -0.35411  -0.34166  -0.33819
 Alpha  occ. eigenvalues --   -0.33305  -0.32937  -0.32739  -0.32310  -0.31776
 Alpha  occ. eigenvalues --   -0.31033  -0.30355  -0.28880  -0.28746  -0.28568
 Alpha  occ. eigenvalues --   -0.27577  -0.27104  -0.27006  -0.25933  -0.25643
 Alpha  occ. eigenvalues --   -0.24742  -0.23424  -0.22285  -0.21597  -0.20901
 Alpha  occ. eigenvalues --   -0.19602  -0.19291  -0.15478
 Alpha virt. eigenvalues --   -0.09966  -0.07133  -0.06136  -0.03761  -0.02349
 Alpha virt. eigenvalues --   -0.02029  -0.00072   0.00127   0.00587   0.01206
 Alpha virt. eigenvalues --    0.02721   0.03307   0.03861   0.04130   0.04210

 Mulliken charges:
               1
     1  C   -0.380193
     2  C    0.172120
     3  N   -0.214160
     4  C   -0.195799
     5  C    0.101954
     6  N   -0.123777
     7  Fe  -0.297856
     8  C   -0.411445
     9  C   -0.486558
    10  C   -0.486892
    11  C   -0.502284
    12  N   -0.004171
    13  C    0.270816
    14  C   -0.169407
    15  C   -0.082055
    16  C    0.329455
    17  C   -0.402301
    18  C   -0.239536
    19  C   -0.207302
    20  C    0.305143
    21  O   -0.336956
    22  O   -0.351181
    23  N    0.027026
    24  C    0.223668
    25  C   -0.078805
    26  C    0.017342
    27  C    0.269148
    28  C   -0.383084
    29  C   -0.242013
    30  C   -0.302951
    31  N   -0.004453
    32  C    0.291617
    33  C   -0.120544
    34  C   -0.020208
    35  C    0.274610
    36  C   -0.357676
    37  C   -0.071096
    38  C   -0.467317
    39  N    0.015637
    40  C    0.294082
    41  C   -0.096711
    42  C    0.066808
    43  C    0.162602
    44  C   -0.408204
    45  C   -0.408472
    46  C   -0.141323
    47  C    0.248263
    48  O   -0.331294
    49  O   -0.380901
    50  O   -0.446841
    51  H    0.336961
    52  H    0.129703
    53  H    0.116976
    54  H    0.129960
    55  H    0.123983
    56  H    0.349721
    57  H    0.141657
    58  H    0.129420
    59  H    0.120924
    60  H    0.159638
    61  H    0.144924
    62  H    0.135688
    63  H    0.126355
    64  H    0.137967
    65  H    0.129969
    66  H    0.135398
    67  H    0.117749
    68  H    0.106061
    69  H    0.082090
    70  H    0.114638
    71  H    0.127657
    72  H    0.133231
    73  H    0.146663
    74  H    0.124228
    75  H    0.148803
    76  H    0.130566
    77  H    0.147561
    78  H    0.116984
    79  H    0.140890
    80  H    0.128514
    81  H    0.152624
    82  H    0.141367
    83  H    0.080881
    84  H    0.231450
    85  H    0.152100
    86  H    0.150612
    87  H    0.146666
    88  H    0.129230
    89  H    0.333533
    90  H    0.250135
 Sum of Mulliken charges =  -0.00000

 Dipole moment (field-independent basis, Debye):
    X=             -0.9059    Y=             -3.1282    Z=              5.4900  Tot=              6.3832
 Quadrupole moment (field-independent basis, Debye-Ang):
   XX=           -304.7139   YY=           -266.0537   ZZ=           -288.0005
   XY=             14.8714   XZ=             -0.3762   YZ=             -0.9426

  Exact polarizability: 817.563 -78.798 881.023  15.665  65.395 374.672
 Approx polarizability:1427.495-216.6021858.776  14.318 180.540 597.921

 Normal termination of Gaussian 16 at Fri Sep  9 20:02:33 2022.
