 Gaussian 16, Revision A.03,
 Gaussian 16:  ES64L-G16RevA.03 25-Dec-2016

 ----------------------------------------------------------------------
 # PBE1PBE/def2TZVP empiricaldispersion=GD3BJ int=(grid=ultrafine) geom
 =check pop=nbo guess=read
 ----------------------------------------------------------------------

 ---------
 1jp9_II_Q
 ---------
 Structure from the checkpoint file:  "1jp9_II_Q.chk"
 Charge =  0 Multiplicity = 5

                         Standard orientation:
 ---------------------------------------------------------------------
 Center     Atomic      Atomic             Coordinates (Angstroms)
 Number     Number       Type             X           Y           Z
 ---------------------------------------------------------------------
      1          6           0       -1.395105    0.237801    5.325101
      2          6           0       -1.115773   -0.209118    3.926321
      3          7           0       -0.355513   -1.322749    3.644721
      4          6           0       -1.442763    0.336271    2.731444
      5          6           0       -0.222377   -1.442615    2.336770
      6          7           0       -0.872166   -0.448993    1.759017
      7         26           0       -0.786576    0.105819   -0.393746
      8          6           0        2.565034   -0.456715   -0.401142
      9          6           0       -1.329263   -3.231035   -0.981568
     10          6           0       -4.153758    0.650501   -0.492792
     11          6           0       -0.234031    3.379598    0.067908
     12          7           0        0.367113   -1.509906   -0.629387
     13          6           0        1.742071   -1.562904   -0.598045
     14          6           0        2.211031   -2.939568   -0.808791
     15          6           0        1.088196   -3.694995   -0.972063
     16          6           0       -0.029732   -2.825295   -0.864554
     17          6           0        1.002304   -5.182531   -1.222759
     18          6           0        3.634099   -3.361492   -0.827449
     19          6           0        4.051759   -4.076796    0.499890
     20          6           0        3.820045   -3.196221    1.695908
     21          8           0        4.468979   -2.151005    1.857717
     22          8           0        2.930600   -3.567113    2.525546
     23          7           0       -2.416450   -1.028173   -0.657083
     24          6           0       -2.441838   -2.402602   -0.888289
     25          6           0       -3.835030   -2.853940   -1.026783
     26          6           0       -4.613287   -1.789311   -0.889544
     27          6           0       -3.722504   -0.663661   -0.667420
     28          6           0       -4.214727   -4.285441   -1.286181
     29          6           0       -6.118641   -1.711723   -0.955716
     30          6           0       -6.789040   -2.373053   -1.930280
     31          7           0       -1.959044    1.717843   -0.226045
     32          6           0       -3.345937    1.764152   -0.294906
     33          6           0       -3.813284    3.113437   -0.151516
     34          6           0       -2.703750    3.868980   -0.001809
     35          6           0       -1.561623    2.984289   -0.041771
     36          6           0       -5.260287    3.514120   -0.190806
     37          6           0       -2.527577    5.348692    0.169132
     38          6           0       -3.611236    6.162226    0.189446
     39          7           0        0.856109    1.260233   -0.184741
     40          6           0        0.890324    2.601096    0.003905
     41          6           0        2.222846    3.075334    0.104050
     42          6           0        3.031684    1.969985   -0.038249
     43          6           0        2.161108    0.836073   -0.217006
     44          6           0        2.630054    4.504737    0.310798
     45          6           0        4.531444    1.961309   -0.021945
     46          6           0        5.057331    2.147052   -1.479451
     47          6           0        6.548308    2.148766   -1.587869
     48          8           0        7.299647    2.536633   -0.659147
     49          8           0        7.025969    1.736381   -2.678535
     50          8           0       -0.761310    0.686228   -2.458533
     51          1           0        2.015113   -3.641731    2.246411
     52          1           0        5.089999   -4.330404    0.448497
     53          1           0        3.477814   -4.973174    0.609398
     54          1           0        4.250705   -2.498016   -0.965671
     55          1           0        3.786781   -4.032627   -1.646696
     56          1           0        8.102206    3.022678   -0.862271
     57          1           0        4.672614    1.352691   -2.084334
     58          1           0        4.686981    3.076189   -1.859510
     59          1           0        4.887631    2.761898    0.592130
     60          1           0        4.880032    1.028037    0.368427
     61          1           0        2.592098    5.025098   -0.623378
     62          1           0        1.961481    4.969190    1.005199
     63          1           0        3.626945    4.539167    0.697996
     64          1           0        1.805627   -5.483411   -1.862324
     65          1           0        1.072292   -5.705713   -0.292016
     66          1           0        0.068169   -5.411883   -1.691469
     67          1           0        3.619704   -0.637013   -0.393211
     68          1           0       -1.504967   -4.271398   -1.159537
     69          1           0       -0.069536    4.425589    0.222002
     70          1           0       -5.210322    0.818318   -0.513088
     71          1           0       -3.528987   -4.715095   -1.986223
     72          1           0       -4.179692   -4.835535   -0.369082
     73          1           0       -5.205712   -4.324423   -1.687837
     74          1           0       -6.656880   -1.134546   -0.233175
     75          1           0       -6.333630   -2.520918   -2.887170
     76          1           0       -7.773764   -2.747340   -1.742859
     77          1           0       -5.601840    3.518194   -1.204820
     78          1           0       -5.839108    2.816519    0.377716
     79          1           0       -5.370754    4.493094    0.226695
     80          1           0       -1.546296    5.761939    0.275036
     81          1           0       -3.976246    6.589962   -0.720889
     82          1           0       -4.101829    6.376818    1.115820
     83          1           0        0.319932   -2.213891    1.830869
     84          1           0        0.034621   -1.943452    4.324812
     85          1           0       -2.034315    1.213836    2.573818
     86          1           0       -1.510781    1.301373    5.343326
     87          1           0       -2.294454   -0.224823    5.674458
     88          1           0       -0.580033   -0.043232    5.958803
     89          1           0       -0.000853    0.841645   -3.023466
     90          1           0       -0.467646    0.325895   -1.618580
 ---------------------------------------------------------------------

 SCF Done:  E(UPBE1PBE) =  -3438.53995420     A.U. after    1 cycles

 Alpha virt. eigenvalues --    0.71863   0.71978   0.72435   0.72680   0.72950
 Alpha virt. eigenvalues --    0.73201   0.73404   0.73707   0.73899   0.74326
 Alpha virt. eigenvalues --    0.74626   0.75161   0.75229   0.75862   0.76047

  Beta  occ. eigenvalues -- -256.32701 -30.07310 -25.91268 -25.90697 -25.88672
  Beta  occ. eigenvalues --  -19.26288 -19.25895 -19.18766 -19.17606 -19.16818
  Beta  occ. eigenvalues --  -14.44913 -14.38006 -14.37778 -14.37641 -14.37409
  Beta  occ. eigenvalues --  -14.36982 -10.35658 -10.34810 -10.28199 -10.26209
  Beta  occ. eigenvalues --  -10.25079 -10.24916 -10.24637 -10.24602 -10.24572
  Beta  occ. eigenvalues --  -10.24479 -10.24206 -10.23986 -10.23683 -10.23547
  Beta  occ. eigenvalues --  -10.23492 -10.23398 -10.23134 -10.23012 -10.22779
  Beta  occ. eigenvalues --  -10.22747 -10.22703 -10.22398 -10.22321 -10.22243
  Beta  occ. eigenvalues --  -10.22156 -10.22032 -10.21929 -10.21913 -10.21911
  Beta  occ. eigenvalues --  -10.21801 -10.21667 -10.21464 -10.21430 -10.21287
  Beta  occ. eigenvalues --  -10.21055 -10.20843 -10.20754 -10.20662  -3.40456
  Beta  occ. eigenvalues --   -2.16939  -2.16650  -2.13593  -1.16589  -1.16192
  Beta  occ. eigenvalues --   -1.06663  -1.03590  -1.02231  -1.01293  -0.98423
  Beta  occ. eigenvalues --   -0.97550  -0.97352  -0.96421  -0.90598  -0.84539
  Beta  occ. eigenvalues --   -0.83930  -0.83538  -0.82922  -0.82209  -0.81739
  Beta  occ. eigenvalues --   -0.81331  -0.81111  -0.79530  -0.78923  -0.77406
  Beta  occ. eigenvalues --   -0.76133  -0.75426  -0.74266  -0.73399  -0.72900
  Beta  occ. eigenvalues --   -0.72270  -0.71627  -0.70101  -0.69674  -0.69372
  Beta  occ. eigenvalues --   -0.67017  -0.66335  -0.65353  -0.65240  -0.64639
  Beta  occ. eigenvalues --   -0.62554  -0.61046  -0.59828  -0.59355  -0.57815
  Beta  occ. eigenvalues --   -0.57017  -0.56561  -0.56498  -0.55314  -0.54335
  Beta  occ. eigenvalues --   -0.53827  -0.53602  -0.52499  -0.52463  -0.51877
  Beta  occ. eigenvalues --   -0.51054  -0.50626  -0.50377  -0.49648  -0.49158
  Beta  occ. eigenvalues --   -0.48696  -0.48522  -0.48335  -0.48239  -0.48043
  Beta  occ. eigenvalues --   -0.46367  -0.46166  -0.45855  -0.45361  -0.45121
  Beta  occ. eigenvalues --   -0.44819  -0.44584  -0.44553  -0.44292  -0.44122
  Beta  occ. eigenvalues --   -0.43662  -0.43573  -0.43475  -0.43369  -0.43235
  Beta  occ. eigenvalues --   -0.43009  -0.42862  -0.42623  -0.42525  -0.42219
  Beta  occ. eigenvalues --   -0.41711  -0.41392  -0.41154  -0.40988  -0.40662
  Beta  occ. eigenvalues --   -0.40015  -0.39537  -0.39397  -0.39247  -0.39132
  Beta  occ. eigenvalues --   -0.38930  -0.38502  -0.38094  -0.38019  -0.37785
  Beta  occ. eigenvalues --   -0.37173  -0.36826  -0.36623  -0.36378  -0.36082
  Beta  occ. eigenvalues --   -0.35702  -0.35506  -0.35370  -0.33692  -0.33046
  Beta  occ. eigenvalues --   -0.32734  -0.32719  -0.31789  -0.31735  -0.31552
  Beta  occ. eigenvalues --   -0.30764  -0.29767  -0.28723  -0.28602  -0.28333
  Beta  occ. eigenvalues --   -0.27259  -0.26919  -0.25860  -0.25258  -0.24825
  Beta  occ. eigenvalues --   -0.23947  -0.23340  -0.20523  -0.19298  -0.19042
  Beta  occ. eigenvalues --   -0.18479
  Beta virt. eigenvalues --   -0.08152  -0.07390  -0.04961  -0.04846  -0.02144
  Beta virt. eigenvalues --   -0.01852  -0.01406  -0.00015   0.00327   0.00903
  Beta virt. eigenvalues --    0.01945   0.02235   0.03145   0.03561   0.04434

 Mulliken charges and spin densities:
               1          2
     1  C   -0.382047   0.000841
     2  C    0.171007   0.003031
     3  N   -0.217630  -0.000179
     4  C   -0.197602  -0.001702
     5  C    0.098905  -0.000823
     6  N   -0.144667   0.039098
     7  Fe  -0.236713   1.993740
     8  C   -0.409421  -0.041360
     9  C   -0.489429  -0.004426
    10  C   -0.485167   0.086980
    11  C   -0.513648   0.004230
    12  N   -0.019114  -0.041339
    13  C    0.276651   0.019649
    14  C   -0.167727   0.013063
    15  C   -0.081901   0.000851
    16  C    0.334132   0.020883
    17  C   -0.402492  -0.000741
    18  C   -0.239544  -0.001302
    19  C   -0.207585  -0.000001
    20  C    0.305402   0.000750
    21  O   -0.337545  -0.000106
    22  O   -0.350610  -0.000049
    23  N    0.019077  -0.001111
    24  C    0.228810   0.012836
    25  C   -0.079988  -0.020731
    26  C    0.019165   0.017494
    27  C    0.272559  -0.045215
    28  C   -0.383615   0.001614
    29  C   -0.242370  -0.006023
    30  C   -0.302881   0.006224
    31  N   -0.019161   0.013932
    32  C    0.295199  -0.082947
    33  C   -0.116633   0.289715
    34  C   -0.033382  -0.163607
    35  C    0.274128   0.029557
    36  C   -0.378432  -0.015034
    37  C   -0.108280   0.709521
    38  C   -0.345101   1.012181
    39  N    0.006773  -0.028939
    40  C    0.301037  -0.000038
    41  C   -0.096723   0.002988
    42  C    0.067733   0.002186
    43  C    0.166999   0.021441
    44  C   -0.408146  -0.000602
    45  C   -0.408786  -0.000296
    46  C   -0.141772   0.000184
    47  C    0.248215   0.000149
    48  O   -0.331366  -0.000003
    49  O   -0.380569   0.000064
    50  O   -0.472699   0.112325
    51  H    0.337861   0.000045
    52  H    0.129604   0.000172
    53  H    0.117064   0.000024
    54  H    0.130040  -0.000040
    55  H    0.124178   0.000524
    56  H    0.349645  -0.000000
    57  H    0.142913   0.000033
    58  H    0.129531  -0.000020
    59  H    0.120969  -0.000059
    60  H    0.160273  -0.000016
    61  H    0.145452   0.000266
    62  H    0.133617   0.000026
    63  H    0.126465  -0.000074
    64  H    0.137910   0.000084
    65  H    0.130432   0.000229
    66  H    0.135459  -0.000065
    67  H    0.117876   0.001762
    68  H    0.106288   0.000089
    69  H    0.084042   0.001491
    70  H    0.113111  -0.003878
    71  H    0.127769  -0.000573
    72  H    0.133726  -0.000978
    73  H    0.146363  -0.000255
    74  H    0.123875   0.000841
    75  H    0.149305  -0.000333
    76  H    0.130532  -0.000325
    77  H    0.145620   0.014858
    78  H    0.127144   0.009911
    79  H    0.141392  -0.002150
    80  H    0.126685   0.017063
    81  H    0.144106   0.005274
    82  H    0.141877   0.006398
    83  H    0.072868   0.001091
    84  H    0.226270   0.002019
    85  H    0.145049   0.001478
    86  H    0.147694  -0.000013
    87  H    0.144341   0.000057
    88  H    0.127440   0.000103
    89  H    0.310892   0.014129
    90  H    0.261275  -0.028138
 Sum of Mulliken charges =  -0.00000   4.00000

 Dipole moment (field-independent basis, Debye):
    X=             -1.6066    Y=             -1.5696    Z=              5.4388  Tot=              5.8843
 Quadrupole moment (field-independent basis, Debye-Ang):
   XX=           -300.0764   YY=           -253.4481   ZZ=           -292.9680
   XY=              8.3089   XZ=             -0.0988   YZ=              1.2221

 Summary of Natural Population Analysis:

                                       Natural Population
                Natural  -----------------------------------------------
    Atom  No    Charge         Core      Valence    Rydberg      Total
 -----------------------------------------------------------------------
      C    1   -0.31964      0.99969     2.31675    0.00320     3.31964
      C    2    0.05099      0.99954     1.93986    0.00960     2.94901
      N    3   -0.24196      0.99967     2.73185    0.01044     3.74196
      C    4   -0.03826      0.99944     2.02965    0.00917     3.03826
      C    5    0.09217      0.99968     1.89796    0.01020     2.90783
      N    6   -0.16931      0.99972     2.64715    0.02244     3.66931
     Fe    7    1.12933      8.98625     2.86583    0.01859    11.87067
      C    8   -0.12903      0.99948     2.12092    0.00863     3.12903
      C    9   -0.11779      0.99947     2.11021    0.00811     3.11779
      C   10   -0.07563      0.99951     2.06863    0.00750     3.07563
      C   11   -0.11262      0.99950     2.10524    0.00787     3.11262
      N   12   -0.22704      0.99969     2.70684    0.02051     3.72704
      C   13    0.07813      0.99955     1.91168    0.01064     2.92187
      C   14   -0.02197      0.99946     2.01266    0.00985     3.02197
      C   15   -0.02120      0.99942     2.01254    0.00923     3.02120
      C   16    0.07187      0.99948     1.91788    0.01077     2.92813
      C   17   -0.31773      0.99970     2.31407    0.00397     3.31773
      C   18   -0.20810      0.99964     2.20094    0.00752     3.20810
      C   19   -0.25361      0.99962     2.24594    0.00804     3.25361
      C   20    0.38815      0.99974     1.59465    0.01746     2.61185
      O   21   -0.28126      0.99989     3.26926    0.01211     4.28126
      O   22   -0.34405      0.99981     3.32974    0.01450     4.34405
      N   23   -0.18128      0.99968     2.66119    0.02041     3.68128
      C   24    0.08212      0.99955     1.90806    0.01027     2.91788
      C   25   -0.00723      0.99939     1.99901    0.00883     3.00723
      C   26   -0.04402      0.99934     2.03365    0.01103     3.04402
      C   27    0.06739      0.99955     1.92295    0.01011     2.93261
      C   28   -0.32093      0.99969     2.31746    0.00378     3.32093
      C   29   -0.09941      0.99961     2.09028    0.00952     3.09941
      C   30   -0.19642      0.99964     2.18836    0.00842     3.19642
      N   31   -0.17883      0.99967     2.65896    0.02020     3.67883
      C   32    0.04229      0.99953     1.94834    0.00985     2.95771
      C   33    0.11437      0.99941     1.87775    0.00847     2.88563
      C   34   -0.09480      0.99938     2.08531    0.01011     3.09480
      C   35    0.10813      0.99954     1.88192    0.01040     2.89187
      C   36   -0.31846      0.99969     2.31528    0.00349     3.31846
      C   37    0.23966      0.99961     1.75265    0.00808     2.76034
      C   38    0.30112      0.99964     1.69171    0.00754     2.69888
      N   39   -0.21402      0.99967     2.69354    0.02081     3.71402
      C   40    0.07972      0.99950     1.91019    0.01059     2.92028
      C   41   -0.01453      0.99946     2.00678    0.00829     3.01453
      C   42   -0.00600      0.99948     1.99715    0.00937     3.00600
      C   43    0.07326      0.99951     1.91674    0.01049     2.92674
      C   44   -0.31938      0.99970     2.31589    0.00379     3.31938
      C   45   -0.21521      0.99966     2.20852    0.00702     3.21521
      C   46   -0.24421      0.99962     2.23612    0.00848     3.24421
      C   47    0.37874      0.99974     1.60354    0.01797     2.62126
      O   48   -0.32958      0.99981     3.31624    0.01354     4.32958
      O   49   -0.30454      0.99990     3.29291    0.01173     4.30454
      O   50   -0.33655      0.99993     3.32885    0.00777     4.33655
      H   51    0.25413      0.00000     0.24481    0.00105     0.24587
      H   52    0.12139      0.00000     0.37797    0.00064     0.37861
      H   53    0.10366      0.00000     0.39558    0.00076     0.39634
      H   54    0.11525      0.00000     0.38395    0.00080     0.38475
      H   55    0.11218      0.00000     0.38698    0.00084     0.38782
      H   56    0.25801      0.00000     0.24058    0.00141     0.24199
      H   57    0.12169      0.00000     0.37763    0.00068     0.37831
      H   58    0.11844      0.00000     0.38091    0.00064     0.38156
      H   59    0.11053      0.00000     0.38863    0.00084     0.38947
      H   60    0.11298      0.00000     0.38605    0.00096     0.38702
      H   61    0.11099      0.00000     0.38816    0.00085     0.38901
      H   62    0.11050      0.00000     0.38874    0.00077     0.38950
      H   63    0.10899      0.00000     0.39019    0.00082     0.39101
      H   64    0.11078      0.00000     0.38837    0.00084     0.38922
      H   65    0.10717      0.00000     0.39198    0.00085     0.39283
      H   66    0.11070      0.00000     0.38863    0.00068     0.38930
      H   67    0.11172      0.00000     0.38705    0.00123     0.38828
      H   68    0.10685      0.00000     0.39172    0.00143     0.39315
      H   69    0.10330      0.00000     0.39539    0.00131     0.39670
      H   70    0.10632      0.00000     0.39254    0.00114     0.39368
      H   71    0.10864      0.00000     0.39063    0.00073     0.39136
      H   72    0.10938      0.00000     0.38975    0.00087     0.39062
      H   73    0.11670      0.00000     0.38252    0.00078     0.38330
      H   74    0.10443      0.00000     0.39464    0.00094     0.39557
      H   75    0.10074      0.00000     0.39835    0.00091     0.39926
      H   76    0.09905      0.00000     0.40020    0.00075     0.40095
      H   77    0.11916      0.00000     0.38015    0.00069     0.38084
      H   78    0.11331      0.00000     0.38603    0.00066     0.38669
      H   79    0.11326      0.00000     0.38609    0.00065     0.38674
      H   80    0.11887      0.00000     0.38056    0.00058     0.38113
      H   81    0.10361      0.00000     0.39581    0.00058     0.39639
      H   82    0.10229      0.00000     0.39713    0.00059     0.39771
      H   83    0.10093      0.00000     0.39783    0.00125     0.39907
      H   84    0.20616      0.00000     0.29296    0.00088     0.29384
      H   85    0.11404      0.00000     0.38532    0.00065     0.38596
      H   86    0.11728      0.00000     0.38221    0.00051     0.38272
      H   87    0.11142      0.00000     0.38787    0.00071     0.38858
      H   88    0.10865      0.00000     0.39069    0.00066     0.39135
      H   89    0.24025      0.00000     0.25835    0.00140     0.25975
      H   90    0.18347      0.00000     0.31334    0.00319     0.31653
 =======================================================================
   * Total *    2.00000     57.96687   127.46587    0.56727   186.00000

 Normal termination of Gaussian 16 at Mon Dec  5 12:46:50 2022.
