 Gaussian 16, Revision A.03,
 Gaussian 16:  ES64L-G16RevA.03 25-Dec-2016

 ----------------------------------------------------------------------
 # PBE1PBE/def2TZVP empiricaldispersion=GD3BJ scf=maxcycle=999 geom=che
 ck pop=nbo
 ----------------------------------------------------------------------

 ----------
 1moh_III_D
 ----------
 Structure from the checkpoint file:  "1moh_III_D.chk"
 Charge =  1 Multiplicity = 2

                         Standard orientation:
 ---------------------------------------------------------------------
 Center     Atomic      Atomic             Coordinates (Angstroms)
 Number     Number       Type             X           Y           Z
 ---------------------------------------------------------------------
      1          6           0       -1.521684    0.857729    5.186847
      2          6           0       -1.217927    0.227520    3.858695
      3          7           0       -0.739051   -1.062733    3.706006
      4          6           0       -1.289910    0.762400    2.606042
      5          6           0       -0.515280   -1.287220    2.410264
      6          7           0       -0.846880   -0.196457    1.739301
      7         26           0       -0.749404    0.028480   -0.395851
      8          6           0        2.505079   -0.598801   -0.398482
      9          6           0       -1.513651   -3.250170   -1.046968
     10          6           0       -4.024762    0.655920   -0.227105
     11          6           0       -0.120124    3.389553   -0.076013
     12          7           0        0.096673   -1.485813   -0.535815
     13          6           0        1.512418   -1.562347   -0.387692
     14          6           0        2.046480   -2.905817   -0.377076
     15          6           0        0.954606   -3.675202   -0.583803
     16          6           0       -0.222123   -2.829675   -0.709728
     17          6           0        1.017963   -5.199591   -0.774638
     18          6           0        3.541602   -3.388631   -0.436270
     19          6           0        3.734812   -4.039758    0.953805
     20          6           0        3.965339   -2.982984    2.011105
     21          8           0        5.068390   -2.391036    2.156173
     22          8           0        3.031720   -2.581872    2.712802
     23          7           0       -2.496216   -1.041867   -0.566975
     24          6           0       -2.556658   -2.324874   -0.966989
     25          6           0       -3.968634   -2.696014   -1.129410
     26          6           0       -4.744397   -1.698351   -0.719725
     27          6           0       -3.782140   -0.616213   -0.667646
     28          6           0       -4.157560   -4.157427   -1.549131
     29          6           0       -6.290002   -1.554873   -0.628516
     30          6           0       -7.076078   -2.438602   -1.224470
     31          7           0       -1.597561    1.466508   -0.231863
     32          6           0       -3.017075    1.594241   -0.214316
     33          6           0       -3.585125    2.905220   -0.033477
     34          6           0       -2.518988    3.706520   -0.087896
     35          6           0       -1.371202    2.835255   -0.230622
     36          6           0       -5.012212    3.465174   -0.221057
     37          6           0       -2.489446    5.259245    0.020911
     38          6           0       -3.230118    6.160962    0.724577
     39          7           0        0.850819    1.132406   -0.201202
     40          6           0        0.918332    2.501086   -0.131418
     41          6           0        2.320342    2.950847   -0.138520
     42          6           0        3.087427    1.836843   -0.082869
     43          6           0        2.167484    0.707608   -0.209248
     44          6           0        2.553876    4.459544    0.024329
     45          6           0        4.616728    1.741870    0.036565
     46          6           0        5.113973    1.965309   -1.426340
     47          6           0        6.602325    1.815463   -1.670925
     48          8           0        7.048784    0.679481   -1.979031
     49          8           0        7.343625    2.824925   -1.506459
     50         16           0       -0.695638    0.209185   -2.677536
     51          1           0       -0.950150    0.373095    5.950641
     52          1           0       -1.266673    1.896421    5.155431
     53          1           0       -2.564743    0.752877    5.401166
     54          1           0       -1.628507    1.744835    2.350948
     55          1           0       -0.133644   -2.192779    1.986924
     56          1           0       -0.586128   -1.718368    4.445437
     57          1           0       -0.389313   -0.832764   -3.410070
     58          1           0       -0.971199    1.354532   -3.250552
     59          1           0       -3.473013    5.970445    1.749080
     60          1           0       -3.568822    7.059534    0.252615
     61          1           0       -1.730188    5.712269   -0.581747
     62          1           0        0.028659    4.438160    0.076263
     63          1           0        3.563499    4.694825   -0.240635
     64          1           0        1.883345    4.995270   -0.614643
     65          1           0        2.377540    4.739981    1.041758
     66          1           0        4.907235    0.774266    0.389054
     67          1           0        4.991965    2.507830    0.682632
     68          1           0        4.604445    1.267688   -2.057692
     69          1           0        4.828929    2.952748   -1.724020
     70          1           0        8.286547    2.710438   -1.367208
     71          1           0        3.526704   -0.876436   -0.553724
     72          1           0        5.880057   -2.898837    2.226415
     73          1           0        4.579440   -4.695842    0.921290
     74          1           0        2.860198   -4.603269    1.203615
     75          1           0        3.677886   -4.108930   -1.215691
     76          1           0        4.204500   -2.558255   -0.562533
     77          1           0        1.576788   -5.636412    0.026487
     78          1           0        0.025807   -5.600239   -0.777390
     79          1           0        1.495385   -5.422932   -1.705814
     80          1           0       -1.697691   -4.257044   -1.358793
     81          1           0       -5.004372    0.923695    0.109883
     82          1           0       -5.724563    2.756864    0.147389
     83          1           0       -5.109199    4.383064    0.320213
     84          1           0       -5.191569    3.643535   -1.260729
     85          1           0       -3.779665   -4.800541   -0.781995
     86          1           0       -5.198719   -4.353889   -1.698430
     87          1           0       -3.626233   -4.338426   -2.460081
     88          1           0       -7.027488   -3.470817   -0.946854
     89          1           0       -7.759744   -2.120360   -1.983563
     90          1           0       -6.719372   -0.740532   -0.083181
 ---------------------------------------------------------------------

 SCF Done:  E(UPBE1PBE) =  -3761.13511741     A.U. after   88 cycles

 Alpha virt. eigenvalues --    0.64115   0.64597   0.64731   0.65122   0.65275
 Alpha virt. eigenvalues --    0.65322   0.66069   0.66109   0.66295   0.66639
 Alpha virt. eigenvalues --    0.67122   0.67327   0.67556   0.68093   0.68611

  Beta  occ. eigenvalues -- -256.42396 -89.12826 -30.20151 -26.03058 -26.02678
  Beta  occ. eigenvalues --  -26.02099 -19.33766 -19.33458 -19.25668 -19.24328
  Beta  occ. eigenvalues --  -14.53003 -14.49980 -14.49072 -14.48008 -14.47718
  Beta  occ. eigenvalues --  -14.47348 -10.43061 -10.42183 -10.36587 -10.36477
  Beta  occ. eigenvalues --  -10.35785 -10.35655 -10.35585 -10.35149 -10.35131
  Beta  occ. eigenvalues --  -10.34996 -10.34894 -10.34594 -10.33577 -10.33037
  Beta  occ. eigenvalues --  -10.33011 -10.32914 -10.32599 -10.32575 -10.32418
  Beta  occ. eigenvalues --  -10.32326 -10.32298 -10.32227 -10.32226 -10.32163
  Beta  occ. eigenvalues --  -10.32039 -10.31924 -10.31905 -10.31500 -10.31176
  Beta  occ. eigenvalues --  -10.31072 -10.30896 -10.30889 -10.30753 -10.30494
  Beta  occ. eigenvalues --  -10.30276 -10.30104 -10.29966 -10.29543  -8.11181
  Beta  occ. eigenvalues --   -6.04839  -6.04503  -6.03989  -3.55285  -2.31735
  Beta  occ. eigenvalues --   -2.31444  -2.29720  -1.24527  -1.23242  -1.14549
  Beta  occ. eigenvalues --   -1.10954  -1.09586  -1.08654  -1.08349  -1.07442
  Beta  occ. eigenvalues --   -1.06317  -0.99348  -0.94759  -0.93709  -0.93144
  Beta  occ. eigenvalues --   -0.92403  -0.92241  -0.91516  -0.90809  -0.89261
  Beta  occ. eigenvalues --   -0.88844  -0.87913  -0.87477  -0.87168  -0.86546
  Beta  occ. eigenvalues --   -0.85941  -0.83670  -0.81897  -0.81604  -0.81408
  Beta  occ. eigenvalues --   -0.80558  -0.78428  -0.78126  -0.77716  -0.75645
  Beta  occ. eigenvalues --   -0.75068  -0.74601  -0.73000  -0.72580  -0.70654
  Beta  occ. eigenvalues --   -0.70473  -0.70055  -0.69135  -0.68156  -0.65760
  Beta  occ. eigenvalues --   -0.65200  -0.64986  -0.64699  -0.63839  -0.62702
  Beta  occ. eigenvalues --   -0.61870  -0.61524  -0.61137  -0.60867  -0.60224
  Beta  occ. eigenvalues --   -0.59251  -0.58725  -0.58051  -0.57813  -0.57249
  Beta  occ. eigenvalues --   -0.56938  -0.56396  -0.56280  -0.55955  -0.55664
  Beta  occ. eigenvalues --   -0.55505  -0.54759  -0.54496  -0.54457  -0.54274
  Beta  occ. eigenvalues --   -0.53936  -0.53713  -0.53511  -0.53217  -0.53012
  Beta  occ. eigenvalues --   -0.52734  -0.52588  -0.52260  -0.52096  -0.51841
  Beta  occ. eigenvalues --   -0.51561  -0.51298  -0.50974  -0.50850  -0.50591
  Beta  occ. eigenvalues --   -0.50401  -0.50327  -0.50247  -0.50011  -0.49804
  Beta  occ. eigenvalues --   -0.49130  -0.48986  -0.48811  -0.48469  -0.48262
  Beta  occ. eigenvalues --   -0.47961  -0.47568  -0.47427  -0.46885  -0.46726
  Beta  occ. eigenvalues --   -0.46083  -0.45734  -0.45180  -0.44871  -0.44363
  Beta  occ. eigenvalues --   -0.44010  -0.43255  -0.42940  -0.42757  -0.41986
  Beta  occ. eigenvalues --   -0.41877  -0.41096  -0.41028  -0.40781  -0.39951
  Beta  occ. eigenvalues --   -0.39140  -0.38443  -0.37985  -0.37502  -0.36052
  Beta  occ. eigenvalues --   -0.36026  -0.35125  -0.34829  -0.33796  -0.32682
  Beta  occ. eigenvalues --   -0.32488  -0.31587  -0.30839  -0.29788  -0.29336
  Beta  occ. eigenvalues --   -0.28563
  Beta virt. eigenvalues --   -0.23689  -0.16524  -0.16038  -0.13821  -0.11987
  Beta virt. eigenvalues --   -0.10787  -0.08990  -0.08340  -0.08102  -0.06521
  Beta virt. eigenvalues --   -0.06190  -0.05592  -0.05447  -0.04651  -0.03955

 Mulliken charges and spin densities:
               1          2
     1  C   -0.369256  -0.000068
     2  C    0.130666   0.001242
     3  N   -0.205959   0.000056
     4  C   -0.187764   0.000308
     5  C    0.029193   0.000761
     6  N   -0.062703   0.001422
     7  Fe  -0.410338  -0.142847
     8  C   -0.460333  -0.101706
     9  C   -0.498126  -0.088716
    10  C   -0.473532  -0.123131
    11  C   -0.437613  -0.097757
    12  N    0.089951  -0.072309
    13  C    0.346057   0.220358
    14  C   -0.102741  -0.013130
    15  C   -0.040893   0.056379
    16  C    0.165243   0.183534
    17  C   -0.383668  -0.005501
    18  C   -0.147830  -0.001491
    19  C   -0.180070   0.000726
    20  C    0.259287   0.000692
    21  O   -0.326126   0.000072
    22  O   -0.350161   0.000213
    23  N   -0.011481  -0.067600
    24  C    0.283027   0.184898
    25  C   -0.092880   0.066979
    26  C   -0.048414  -0.040484
    27  C    0.324158   0.218879
    28  C   -0.364012  -0.005935
    29  C   -0.188307   0.191575
    30  C   -0.270858  -0.192131
    31  N    0.082808  -0.075623
    32  C    0.296880   0.223265
    33  C   -0.096932  -0.043514
    34  C    0.083460   0.085069
    35  C    0.158065   0.184148
    36  C   -0.321544   0.002776
    37  C   -0.258076  -0.113587
    38  C   -0.289065   0.155057
    39  N    0.080621  -0.076433
    40  C    0.291397   0.189978
    41  C   -0.083550   0.038454
    42  C   -0.078622  -0.004382
    43  C    0.293836   0.211490
    44  C   -0.363586  -0.002536
    45  C   -0.317319  -0.003237
    46  C   -0.167550   0.001930
    47  C    0.274881   0.000368
    48  O   -0.391262   0.000300
    49  O   -0.329158  -0.000024
    50  S   -0.284263   0.001340
    51  H    0.136732   0.000033
    52  H    0.150984   0.000014
    53  H    0.153042   0.000083
    54  H    0.153092  -0.000380
    55  H    0.177389  -0.000249
    56  H    0.245260   0.000016
    57  H    0.203782   0.000905
    58  H    0.197956   0.001516
    59  H    0.152804  -0.008647
    60  H    0.165057  -0.008845
    61  H    0.135319   0.013150
    62  H    0.154065   0.003617
    63  H    0.146284   0.000273
    64  H    0.144377   0.000837
    65  H    0.157620   0.003991
    66  H    0.141922   0.000005
    67  H    0.146700   0.000256
    68  H    0.142828  -0.000232
    69  H    0.130363  -0.000035
    70  H    0.354102   0.000090
    71  H    0.127168   0.004712
    72  H    0.348082  -0.000001
    73  H    0.134871   0.000051
    74  H    0.105281  -0.000182
    75  H    0.145496   0.000165
    76  H    0.133714  -0.000052
    77  H    0.141893   0.002518
    78  H    0.134019   0.000383
    79  H    0.153953   0.003723
    80  H    0.157023   0.003668
    81  H    0.106370   0.004990
    82  H    0.124591  -0.000243
    83  H    0.155214   0.000389
    84  H    0.148796  -0.001016
    85  H    0.154028   0.005357
    86  H    0.126581  -0.000155
    87  H    0.145083   0.003163
    88  H    0.157630   0.016442
    89  H    0.161381   0.016011
    90  H    0.153612  -0.016452
 Sum of Mulliken charges =   1.00000   1.00000

 Dipole moment (field-independent basis, Debye):
    X=             -1.3098    Y=             -1.2792    Z=              1.5989  Tot=              2.4307
 Quadrupole moment (field-independent basis, Debye-Ang):
   XX=           -202.5175   YY=           -213.7037   ZZ=           -268.5137
   XY=             -5.2576   XZ=             10.0966   YZ=             -0.3334

 Summary of Natural Population Analysis:

                                       Natural Population
                Natural  -----------------------------------------------
    Atom  No    Charge         Core      Valence    Rydberg      Total
 -----------------------------------------------------------------------
      C    1   -0.32093      0.99969     2.31810    0.00314     3.32093
      C    2    0.06112      0.99956     1.93014    0.00918     2.93888
      N    3   -0.23681      0.99969     2.72724    0.00988     3.73681
      C    4   -0.04203      0.99946     2.03326    0.00932     3.04203
      C    5    0.09937      0.99968     1.89177    0.00918     2.90063
      N    6   -0.16644      0.99967     2.64377    0.02300     3.66644
     Fe    7   -0.16407      8.98940     4.14939    0.02528    13.16407
      C    8   -0.17165      0.99942     2.16348    0.00874     3.17165
      C    9   -0.17799      0.99949     2.17048    0.00802     3.17799
      C   10   -0.16388      0.99944     2.15599    0.00845     3.16388
      C   11   -0.17552      0.99942     2.16774    0.00835     3.17552
      N   12   -0.20577      0.99957     2.68575    0.02045     3.70577
      C   13    0.20231      0.99942     1.78804    0.01023     2.79769
      C   14   -0.00297      0.99933     1.99314    0.01050     3.00297
      C   15    0.01768      0.99939     1.97441    0.00852     2.98232
      C   16    0.17881      0.99953     1.81170    0.00996     2.82119
      C   17   -0.32111      0.99970     2.31778    0.00363     3.32111
      C   18   -0.20381      0.99966     2.19764    0.00652     3.20381
      C   19   -0.25145      0.99963     2.24333    0.00850     3.25145
      C   20    0.37944      0.99976     1.60315    0.01766     2.62056
      O   21   -0.32808      0.99981     3.31279    0.01547     4.32808
      O   22   -0.28739      0.99988     3.27496    0.01255     4.28739
      N   23   -0.20319      0.99965     2.68039    0.02315     3.70319
      C   24    0.18970      0.99956     1.80083    0.00991     2.81030
      C   25    0.03762      0.99940     1.95400    0.00898     2.96238
      C   26   -0.05689      0.99924     2.04696    0.01069     3.05689
      C   27    0.21129      0.99945     1.77924    0.01002     2.78871
      C   28   -0.32513      0.99970     2.32170    0.00372     3.32513
      C   29   -0.01087      0.99954     2.00171    0.00961     3.01087
      C   30   -0.25861      0.99960     2.24899    0.01002     3.25861
      N   31   -0.18351      0.99951     2.66248    0.02151     3.68351
      C   32    0.18890      0.99939     1.80170    0.01001     2.81110
      C   33   -0.01744      0.99930     2.00843    0.00971     3.01744
      C   34    0.00844      0.99928     1.98185    0.01043     2.99156
      C   35    0.17878      0.99946     1.81194    0.00981     2.82122
      C   36   -0.31282      0.99968     2.30680    0.00634     3.31282
      C   37   -0.15081      0.99960     2.14171    0.00950     3.15081
      C   38   -0.11172      0.99963     2.10380    0.00830     3.11172
      N   39   -0.20260      0.99965     2.68133    0.02162     3.70260
      C   40    0.19194      0.99953     1.79876    0.00977     2.80806
      C   41    0.02124      0.99943     1.97121    0.00813     2.97876
      C   42   -0.00576      0.99940     1.99698    0.00938     3.00576
      C   43    0.20414      0.99950     1.78686    0.00950     2.79586
      C   44   -0.32351      0.99969     2.32011    0.00371     3.32351
      C   45   -0.20610      0.99967     2.20019    0.00625     3.20610
      C   46   -0.24206      0.99962     2.23426    0.00819     3.24206
      C   47    0.37988      0.99976     1.60258    0.01779     2.62012
      O   48   -0.30724      0.99990     3.29550    0.01184     4.30724
      O   49   -0.32320      0.99982     3.31029    0.01309     4.32320
      S   50    0.00866      4.99918     2.97078    0.02139     7.99134
      H   51    0.11250      0.00000     0.38689    0.00061     0.38750
      H   52    0.11854      0.00000     0.38096    0.00050     0.38146
      H   53    0.11529      0.00000     0.38407    0.00064     0.38471
      H   54    0.11342      0.00000     0.38576    0.00082     0.38658
      H   55    0.11401      0.00000     0.38501    0.00097     0.38599
      H   56    0.21261      0.00000     0.28657    0.00082     0.28739
      H   57    0.10378      0.00000     0.39473    0.00149     0.39622
      H   58    0.10166      0.00000     0.39680    0.00154     0.39834
      H   59    0.09853      0.00000     0.40041    0.00106     0.40147
      H   60    0.10510      0.00000     0.39414    0.00076     0.39490
      H   61    0.10686      0.00000     0.39199    0.00114     0.39314
      H   62    0.12082      0.00000     0.37800    0.00118     0.37918
      H   63    0.11470      0.00000     0.38461    0.00069     0.38530
      H   64    0.11249      0.00000     0.38684    0.00067     0.38751
      H   65    0.11861      0.00000     0.38067    0.00072     0.38139
      H   66    0.11437      0.00000     0.38484    0.00079     0.38563
      H   67    0.11517      0.00000     0.38416    0.00068     0.38483
      H   68    0.11741      0.00000     0.38199    0.00060     0.38259
      H   69    0.11048      0.00000     0.38881    0.00070     0.38952
      H   70    0.25798      0.00000     0.24063    0.00139     0.24202
      H   71    0.11525      0.00000     0.38327    0.00147     0.38475
      H   72    0.25276      0.00000     0.24614    0.00110     0.24724
      H   73    0.11016      0.00000     0.38906    0.00078     0.38984
      H   74    0.11873      0.00000     0.38053    0.00074     0.38127
      H   75    0.11857      0.00000     0.38060    0.00083     0.38143
      H   76    0.11202      0.00000     0.38723    0.00075     0.38798
      H   77    0.11313      0.00000     0.38610    0.00078     0.38687
      H   78    0.11157      0.00000     0.38784    0.00059     0.38843
      H   79    0.11625      0.00000     0.38298    0.00078     0.38375
      H   80    0.11955      0.00000     0.37911    0.00134     0.38045
      H   81    0.11344      0.00000     0.38469    0.00186     0.38656
      H   82    0.10659      0.00000     0.39296    0.00045     0.39341
      H   83    0.12039      0.00000     0.37905    0.00055     0.37961
      H   84    0.11676      0.00000     0.38253    0.00071     0.38324
      H   85    0.11645      0.00000     0.38283    0.00072     0.38355
      H   86    0.11501      0.00000     0.38399    0.00099     0.38499
      H   87    0.11383      0.00000     0.38548    0.00068     0.38617
      H   88    0.10938      0.00000     0.38966    0.00096     0.39062
      H   89    0.11459      0.00000     0.38460    0.00082     0.38541
      H   90    0.10323      0.00000     0.39583    0.00094     0.39677
 =======================================================================
   * Total *    1.00000     61.96774   128.43779    0.59447   191.00000

 Normal termination of Gaussian 16 at Sat Oct  8 02:44:53 2022.
