 Gaussian 16, Revision A.03,
 Gaussian 16:  ES64L-G16RevA.03 25-Dec-2016

 ----------------------------------------------------------------------
 # PBE1PBE/def2TZVP empiricaldispersion=GD3BJ int=(grid=ultrafine) geom
 =check pop=nbo
 ----------------------------------------------------------------------

 ---------
 1moh_II_Q
 ---------
 Structure from the checkpoint file:  "1moh_II_Q.chk"
 Charge =  0 Multiplicity = 5

                         Standard orientation:
 ---------------------------------------------------------------------
 Center     Atomic      Atomic             Coordinates (Angstroms)
 Number     Number       Type             X           Y           Z
 ---------------------------------------------------------------------
      1          6           0       -1.521684    0.857729    5.186847
      2          6           0       -1.217927    0.227520    3.858695
      3          7           0       -0.739051   -1.062733    3.706006
      4          6           0       -1.289910    0.762400    2.606042
      5          6           0       -0.515280   -1.287220    2.410264
      6          7           0       -0.846880   -0.196457    1.739301
      7         26           0       -0.749404    0.028480   -0.395851
      8          6           0        2.505079   -0.598801   -0.398482
      9          6           0       -1.513651   -3.250170   -1.046968
     10          6           0       -4.024762    0.655920   -0.227105
     11          6           0       -0.120124    3.389553   -0.076013
     12          7           0        0.096673   -1.485813   -0.535815
     13          6           0        1.512418   -1.562347   -0.387692
     14          6           0        2.046480   -2.905817   -0.377076
     15          6           0        0.954606   -3.675202   -0.583803
     16          6           0       -0.222123   -2.829675   -0.709728
     17          6           0        1.017963   -5.199591   -0.774638
     18          6           0        3.541602   -3.388631   -0.436270
     19          6           0        3.734812   -4.039758    0.953805
     20          6           0        3.965339   -2.982984    2.011105
     21          8           0        5.068390   -2.391036    2.156173
     22          8           0        3.031720   -2.581872    2.712802
     23          7           0       -2.496216   -1.041867   -0.566975
     24          6           0       -2.556658   -2.324874   -0.966989
     25          6           0       -3.968634   -2.696014   -1.129410
     26          6           0       -4.744397   -1.698351   -0.719725
     27          6           0       -3.782140   -0.616213   -0.667646
     28          6           0       -4.157560   -4.157427   -1.549131
     29          6           0       -6.290002   -1.554873   -0.628516
     30          6           0       -7.076078   -2.438602   -1.224470
     31          7           0       -1.597561    1.466508   -0.231863
     32          6           0       -3.017075    1.594241   -0.214316
     33          6           0       -3.585125    2.905220   -0.033477
     34          6           0       -2.518988    3.706520   -0.087896
     35          6           0       -1.371202    2.835255   -0.230622
     36          6           0       -5.012212    3.465174   -0.221057
     37          6           0       -2.489446    5.259245    0.020911
     38          6           0       -3.230118    6.160962    0.724577
     39          7           0        0.850819    1.132406   -0.201202
     40          6           0        0.918332    2.501086   -0.131418
     41          6           0        2.320342    2.950847   -0.138520
     42          6           0        3.087427    1.836843   -0.082869
     43          6           0        2.167484    0.707608   -0.209248
     44          6           0        2.553876    4.459544    0.024329
     45          6           0        4.616728    1.741870    0.036565
     46          6           0        5.113973    1.965309   -1.426340
     47          6           0        6.602325    1.815463   -1.670925
     48          8           0        7.048784    0.679481   -1.979031
     49          8           0        7.343625    2.824925   -1.506459
     50         16           0       -0.695638    0.209185   -2.677536
     51          1           0       -0.950150    0.373095    5.950641
     52          1           0       -1.266673    1.896421    5.155431
     53          1           0       -2.564743    0.752877    5.401166
     54          1           0       -1.628507    1.744835    2.350948
     55          1           0       -0.133644   -2.192779    1.986924
     56          1           0       -0.586128   -1.718368    4.445437
     57          1           0       -0.389313   -0.832764   -3.410070
     58          1           0       -0.971199    1.354532   -3.250552
     59          1           0       -3.473013    5.970445    1.749080
     60          1           0       -3.568822    7.059534    0.252615
     61          1           0       -1.730188    5.712269   -0.581747
     62          1           0        0.028659    4.438160    0.076263
     63          1           0        3.563499    4.694825   -0.240635
     64          1           0        1.883345    4.995270   -0.614643
     65          1           0        2.377540    4.739981    1.041758
     66          1           0        4.907235    0.774266    0.389054
     67          1           0        4.991965    2.507830    0.682632
     68          1           0        4.604445    1.267688   -2.057692
     69          1           0        4.828929    2.952748   -1.724020
     70          1           0        8.286547    2.710438   -1.367208
     71          1           0        3.526704   -0.876436   -0.553724
     72          1           0        5.880057   -2.898837    2.226415
     73          1           0        4.579440   -4.695842    0.921290
     74          1           0        2.860198   -4.603269    1.203615
     75          1           0        3.677886   -4.108930   -1.215691
     76          1           0        4.204500   -2.558255   -0.562533
     77          1           0        1.576788   -5.636412    0.026487
     78          1           0        0.025807   -5.600239   -0.777390
     79          1           0        1.495385   -5.422932   -1.705814
     80          1           0       -1.697691   -4.257044   -1.358793
     81          1           0       -5.004372    0.923695    0.109883
     82          1           0       -5.724563    2.756864    0.147389
     83          1           0       -5.109199    4.383064    0.320213
     84          1           0       -5.191569    3.643535   -1.260729
     85          1           0       -3.779665   -4.800541   -0.781995
     86          1           0       -5.198719   -4.353889   -1.698430
     87          1           0       -3.626233   -4.338426   -2.460081
     88          1           0       -7.027488   -3.470817   -0.946854
     89          1           0       -7.759744   -2.120360   -1.983563
     90          1           0       -6.719372   -0.740532   -0.083181
 ---------------------------------------------------------------------

 SCF Done:  E(UPBE1PBE) =  -3761.30011825     A.U. after   58 cycles

 Alpha virt. eigenvalues --    0.72940   0.73165   0.73429   0.73802   0.73928
 Alpha virt. eigenvalues --    0.74242   0.74586   0.74952   0.75094   0.75363
 Alpha virt. eigenvalues --    0.75830   0.76152   0.76308   0.76729   0.76864

  Beta  occ. eigenvalues -- -256.38025 -89.02908 -30.13266 -25.97037 -25.95844
  Beta  occ. eigenvalues --  -25.95563 -19.26715 -19.26139 -19.17642 -19.17280
  Beta  occ. eigenvalues --  -14.44360 -14.39046 -14.38265 -14.37783 -14.36351
  Beta  occ. eigenvalues --  -14.35875 -10.35045 -10.34966 -10.27618 -10.25843
  Beta  occ. eigenvalues --  -10.24721 -10.24574 -10.24319 -10.24058 -10.23611
  Beta  occ. eigenvalues --  -10.23544 -10.23391 -10.23202 -10.23094 -10.23040
  Beta  occ. eigenvalues --  -10.22963 -10.22810 -10.22684 -10.22672 -10.22589
  Beta  occ. eigenvalues --  -10.22338 -10.21906 -10.21763 -10.21736 -10.21624
  Beta  occ. eigenvalues --  -10.21295 -10.21137 -10.21064 -10.20934 -10.20598
  Beta  occ. eigenvalues --  -10.20537 -10.20461 -10.20398 -10.20196 -10.20150
  Beta  occ. eigenvalues --  -10.19993 -10.19419 -10.18940 -10.18253  -8.01396
  Beta  occ. eigenvalues --   -5.95043  -5.94702  -5.94168  -3.44677  -2.22743
  Beta  occ. eigenvalues --   -2.19056  -2.17106  -1.16817  -1.16444  -1.05609
  Beta  occ. eigenvalues --   -1.02974  -1.01648  -0.98371  -0.96999  -0.96311
  Beta  occ. eigenvalues --   -0.95084  -0.90276  -0.84566  -0.83233  -0.82588
  Beta  occ. eigenvalues --   -0.82242  -0.81747  -0.80823  -0.80267  -0.79319
  Beta  occ. eigenvalues --   -0.79096  -0.78174  -0.77887  -0.76784  -0.76047
  Beta  occ. eigenvalues --   -0.74263  -0.73507  -0.72319  -0.72156  -0.71624
  Beta  occ. eigenvalues --   -0.70962  -0.69394  -0.69234  -0.67736  -0.67133
  Beta  occ. eigenvalues --   -0.64810  -0.64210  -0.63877  -0.63278  -0.61597
  Beta  occ. eigenvalues --   -0.60241  -0.59707  -0.57994  -0.57108  -0.56099
  Beta  occ. eigenvalues --   -0.55272  -0.54825  -0.54560  -0.53476  -0.53222
  Beta  occ. eigenvalues --   -0.51793  -0.51630  -0.51418  -0.50973  -0.50593
  Beta  occ. eigenvalues --   -0.50193  -0.49945  -0.49175  -0.48199  -0.48143
  Beta  occ. eigenvalues --   -0.47725  -0.47382  -0.47259  -0.47081  -0.46268
  Beta  occ. eigenvalues --   -0.45854  -0.45368  -0.45301  -0.44644  -0.44425
  Beta  occ. eigenvalues --   -0.44059  -0.43722  -0.43611  -0.43359  -0.43213
  Beta  occ. eigenvalues --   -0.42977  -0.42927  -0.42645  -0.42548  -0.42322
  Beta  occ. eigenvalues --   -0.42173  -0.42092  -0.41735  -0.41553  -0.41322
  Beta  occ. eigenvalues --   -0.41007  -0.40541  -0.40135  -0.39897  -0.39826
  Beta  occ. eigenvalues --   -0.39599  -0.39184  -0.38906  -0.38627  -0.38364
  Beta  occ. eigenvalues --   -0.37980  -0.37961  -0.37303  -0.37215  -0.36814
  Beta  occ. eigenvalues --   -0.36562  -0.36258  -0.36216  -0.35576  -0.34733
  Beta  occ. eigenvalues --   -0.34313  -0.33177  -0.33024  -0.32344  -0.32118
  Beta  occ. eigenvalues --   -0.32039  -0.31730  -0.31241  -0.30665  -0.30115
  Beta  occ. eigenvalues --   -0.28440  -0.28126  -0.27764  -0.27423  -0.27041
  Beta  occ. eigenvalues --   -0.26810  -0.25195  -0.24513  -0.23975  -0.23754
  Beta  occ. eigenvalues --   -0.22969  -0.21628  -0.19230  -0.17874  -0.16475
  Beta virt. eigenvalues --   -0.08899  -0.07430  -0.04429  -0.03598  -0.02363
  Beta virt. eigenvalues --   -0.01493  -0.01147  -0.00503   0.00634   0.01631
  Beta virt. eigenvalues --    0.01702   0.02182   0.02783   0.03300   0.03655

 Mulliken charges and spin densities:
               1          2
     1  C   -0.379294   0.001007
     2  C    0.140039   0.003755
     3  N   -0.212572   0.002219
     4  C   -0.181081   0.000504
     5  C    0.036642   0.003938
     6  N   -0.074321   0.052397
     7  Fe  -0.303901   2.766268
     8  C   -0.426143  -0.118115
     9  C   -0.555662   0.282850
    10  C   -0.449738  -0.082624
    11  C   -0.483276   0.216337
    12  N    0.094990  -0.043501
    13  C    0.291789   0.181409
    14  C   -0.096340  -0.031076
    15  C   -0.030055   0.158176
    16  C    0.132612  -0.068453
    17  C   -0.403080  -0.013675
    18  C   -0.160887   0.000250
    19  C   -0.167268  -0.002041
    20  C    0.255967   0.001716
    21  O   -0.328144  -0.000001
    22  O   -0.346656  -0.000235
    23  N   -0.025690  -0.023370
    24  C    0.258247  -0.038883
    25  C   -0.097057   0.058545
    26  C   -0.048967   0.036024
    27  C    0.269127   0.116722
    28  C   -0.381054  -0.006416
    29  C   -0.189326  -0.375241
    30  C   -0.300977   0.443135
    31  N    0.081953  -0.033075
    32  C    0.243425   0.127345
    33  C   -0.071883  -0.010019
    34  C    0.066640   0.159222
    35  C    0.133940  -0.061889
    36  C   -0.333406   0.000130
    37  C   -0.256668  -0.127046
    38  C   -0.330025   0.181141
    39  N    0.069272  -0.006774
    40  C    0.269736  -0.039867
    41  C   -0.082787   0.110085
    42  C   -0.078283  -0.047110
    43  C    0.232826   0.163530
    44  C   -0.376923  -0.009373
    45  C   -0.329622   0.001089
    46  C   -0.159919  -0.000952
    47  C    0.270944  -0.000241
    48  O   -0.400482  -0.000055
    49  O   -0.332726  -0.000014
    50  S   -0.304400   0.060880
    51  H    0.124397   0.000115
    52  H    0.149549   0.000033
    53  H    0.145187   0.000099
    54  H    0.156161   0.001668
    55  H    0.180442   0.000784
    56  H    0.232309   0.001793
    57  H    0.187796   0.016579
    58  H    0.182673   0.014976
    59  H    0.130686  -0.010834
    60  H    0.137689  -0.009019
    61  H    0.116280   0.016559
    62  H    0.129539  -0.013458
    63  H    0.125235   0.000557
    64  H    0.138718   0.004389
    65  H    0.140130   0.006070
    66  H    0.136371  -0.000371
    67  H    0.131373  -0.000251
    68  H    0.144312   0.000327
    69  H    0.122417  -0.000021
    70  H    0.342450   0.000021
    71  H    0.105227   0.005336
    72  H    0.337595   0.000029
    73  H    0.112053   0.000071
    74  H    0.102176  -0.000095
    75  H    0.130314   0.000460
    76  H    0.126488  -0.000176
    77  H    0.120781   0.004591
    78  H    0.129997   0.001877
    79  H    0.134930   0.006197
    80  H    0.127263  -0.015964
    81  H    0.087433   0.003344
    82  H    0.113927  -0.000005
    83  H    0.144956   0.001127
    84  H    0.132900   0.000921
    85  H    0.137147   0.005724
    86  H    0.111495  -0.000297
    87  H    0.131431   0.003171
    88  H    0.139295  -0.035375
    89  H    0.137151  -0.034660
    90  H    0.134189   0.035074
 Sum of Mulliken charges =  -0.00000   4.00000

 Dipole moment (field-independent basis, Debye):
    X=              3.6547    Y=             -2.1927    Z=              2.9331  Tot=              5.1738
 Quadrupole moment (field-independent basis, Debye-Ang):
   XX=           -279.5876   YY=           -283.6574   ZZ=           -285.9931
   XY=             -6.3255   XZ=              5.9410   YZ=             -7.1156

 Summary of Natural Population Analysis:

                                       Natural Population
                Natural  -----------------------------------------------
    Atom  No    Charge         Core      Valence    Rydberg      Total
 -----------------------------------------------------------------------
      C    1   -0.31940      0.99969     2.31661    0.00310     3.31940
      C    2    0.05447      0.99956     1.93678    0.00920     2.94553
      N    3   -0.23677      0.99969     2.72726    0.00982     3.73677
      C    4   -0.03401      0.99945     2.02563    0.00893     3.03401
      C    5    0.10472      0.99966     1.88514    0.01048     2.89528
      N    6   -0.13919      0.99971     2.61882    0.02066     3.63919
     Fe    7    1.33193      8.99036     2.65086    0.02684    11.66807
      C    8   -0.15454      0.99942     2.14617    0.00895     3.15454
      C    9   -0.06819      0.99948     2.06033    0.00838     3.06819
      C   10   -0.12596      0.99944     2.11769    0.00883     3.12596
      C   11   -0.08412      0.99941     2.07596    0.00874     3.08412
      N   12   -0.19822      0.99956     2.67750    0.02116     3.69822
      C   13    0.14152      0.99940     1.84829    0.01079     2.85848
      C   14   -0.01325      0.99932     2.00346    0.01047     3.01325
      C   15    0.03799      0.99938     1.95406    0.00857     2.96201
      C   16    0.06828      0.99951     1.92149    0.01071     2.93172
      C   17   -0.32120      0.99970     2.31789    0.00362     3.32120
      C   18   -0.20297      0.99966     2.19652    0.00678     3.20297
      C   19   -0.25243      0.99963     2.24424    0.00856     3.25243
      C   20    0.37921      0.99976     1.60322    0.01782     2.62079
      O   21   -0.32931      0.99981     3.31397    0.01552     4.32931
      O   22   -0.28579      0.99988     3.27339    0.01252     4.28579
      N   23   -0.19035      0.99967     2.66835    0.02233     3.69035
      C   24    0.08423      0.99956     1.90585    0.01035     2.91577
      C   25    0.00150      0.99940     1.99007    0.00904     2.99850
      C   26   -0.02034      0.99921     2.01026    0.01087     3.02034
      C   27    0.11363      0.99946     1.87618    0.01073     2.88637
      C   28   -0.32138      0.99970     2.31799    0.00369     3.32138
      C   29   -0.24814      0.99955     2.23803    0.01057     3.24814
      C   30   -0.00218      0.99959     1.99322    0.00937     3.00218
      N   31   -0.17373      0.99949     2.65277    0.02147     3.67373
      C   32    0.11069      0.99937     1.87908    0.01086     2.88931
      C   33    0.00270      0.99929     1.98835    0.00966     2.99730
      C   34    0.00867      0.99927     1.98143    0.01063     2.99133
      C   35    0.07606      0.99944     1.91404    0.01045     2.92394
      C   36   -0.31408      0.99968     2.31046    0.00395     3.31408
      C   37   -0.14062      0.99960     2.13120    0.00982     3.14062
      C   38   -0.14013      0.99963     2.13174    0.00876     3.14013
      N   39   -0.17940      0.99966     2.65878    0.02096     3.67940
      C   40    0.08525      0.99952     1.90493    0.01030     2.91475
      C   41    0.03055      0.99942     1.96172    0.00830     2.96945
      C   42   -0.02848      0.99940     2.01972    0.00936     3.02848
      C   43    0.13300      0.99949     1.85728    0.01022     2.86700
      C   44   -0.32304      0.99970     2.31966    0.00368     3.32304
      C   45   -0.20271      0.99967     2.19667    0.00637     3.20271
      C   46   -0.24463      0.99962     2.23679    0.00822     3.24463
      C   47    0.38072      0.99976     1.60156    0.01797     2.61928
      O   48   -0.31311      0.99990     3.30136    0.01185     4.31311
      O   49   -0.32525      0.99982     3.31232    0.01311     4.32525
      S   50    0.06146      4.99915     2.92017    0.01922     7.93854
      H   51    0.10828      0.00000     0.39108    0.00064     0.39172
      H   52    0.11721      0.00000     0.38228    0.00051     0.38279
      H   53    0.11201      0.00000     0.38730    0.00069     0.38799
      H   54    0.11660      0.00000     0.38262    0.00078     0.38340
      H   55    0.11712      0.00000     0.38202    0.00086     0.38288
      H   56    0.20891      0.00000     0.29030    0.00079     0.29109
      H   57    0.10484      0.00000     0.39354    0.00162     0.39516
      H   58    0.10181      0.00000     0.39652    0.00167     0.39819
      H   59    0.09369      0.00000     0.40513    0.00118     0.40631
      H   60    0.09832      0.00000     0.40083    0.00085     0.40168
      H   61    0.10186      0.00000     0.39690    0.00123     0.39814
      H   62    0.11105      0.00000     0.38780    0.00115     0.38895
      H   63    0.10710      0.00000     0.39217    0.00073     0.39290
      H   64    0.11197      0.00000     0.38732    0.00071     0.38803
      H   65    0.11371      0.00000     0.38552    0.00077     0.38629
      H   66    0.11157      0.00000     0.38741    0.00101     0.38843
      H   67    0.10957      0.00000     0.38972    0.00071     0.39043
      H   68    0.11950      0.00000     0.37988    0.00062     0.38050
      H   69    0.10964      0.00000     0.38964    0.00071     0.39036
      H   70    0.25401      0.00000     0.24439    0.00159     0.24599
      H   71    0.10809      0.00000     0.39051    0.00140     0.39191
      H   72    0.24917      0.00000     0.24964    0.00119     0.25083
      H   73    0.10397      0.00000     0.39515    0.00088     0.39603
      H   74    0.11934      0.00000     0.37991    0.00075     0.38066
      H   75    0.11366      0.00000     0.38547    0.00086     0.38634
      H   76    0.11079      0.00000     0.38843    0.00077     0.38921
      H   77    0.10627      0.00000     0.39289    0.00084     0.39373
      H   78    0.11126      0.00000     0.38811    0.00063     0.38874
      H   79    0.11041      0.00000     0.38878    0.00082     0.38959
      H   80    0.10804      0.00000     0.39065    0.00131     0.39196
      H   81    0.10707      0.00000     0.39117    0.00175     0.39293
      H   82    0.10393      0.00000     0.39541    0.00066     0.39607
      H   83    0.11698      0.00000     0.38221    0.00081     0.38302
      H   84    0.11303      0.00000     0.38614    0.00083     0.38697
      H   85    0.11016      0.00000     0.38902    0.00083     0.38984
      H   86    0.10861      0.00000     0.39033    0.00105     0.39139
      H   87    0.10884      0.00000     0.39040    0.00076     0.39116
      H   88    0.08415      0.00000     0.41458    0.00127     0.41585
      H   89    0.08718      0.00000     0.41163    0.00120     0.41282
      H   90    0.11664      0.00000     0.38254    0.00082     0.38336
 =======================================================================
   * Total *    2.00000     61.96848   127.43067    0.60085   190.00000

 Normal termination of Gaussian 16 at Sat Oct  1 10:24:34 2022.
