 Gaussian 16, Revision A.03,
 Gaussian 16:  ES64L-G16RevA.03 25-Dec-2016

 ----------------------------------------------------------------------
 # PBE1PBE/def2TZVP empiricaldispersion=GD3BJ int=(grid=ultrafine) geom
 =check pop=nbo
 ----------------------------------------------------------------------

 ----------
 1v9z_III_D
 ----------
 Structure from the checkpoint file:  "1v9z_III_D.chk"
 Charge =  1 Multiplicity = 2

                         Standard orientation:
 ---------------------------------------------------------------------
 Center     Atomic      Atomic             Coordinates (Angstroms)
 Number     Number       Type             X           Y           Z
 ---------------------------------------------------------------------
      1          6           0       -1.129545   -1.711640    5.712280
      2          6           0       -1.249196   -0.967192    4.425822
      3          7           0       -1.627878    0.358608    4.357877
      4          6           0       -0.974828   -1.339719    3.152353
      5          6           0       -1.576969    0.766636    3.106828
      6          7           0       -1.183182   -0.243499    2.353137
      7          6           0        1.280649   -0.612713   -4.339049
      8          6           0        1.254445   -0.347908   -2.852556
      9         16           0       -0.387448    0.141992   -2.309470
     10          6           0       -0.722113    1.540213   -3.414496
     11          6           0        2.527621    0.073469    0.861262
     12          6           0       -0.844123   -3.357630   -0.005085
     13          6           0       -4.178398    0.087597   -0.681936
     14          6           0       -0.874929    3.516906    0.197113
     15          6           0        1.879312   -1.193094    0.669953
     16          6           0        2.570433   -2.487983    0.758376
     17          6           0        1.607039   -3.456254    0.512790
     18          6           0        0.366018   -2.750389    0.281707
     19          6           0        1.827477   -4.988715    0.493486
     20          6           0        4.057861   -2.695091    1.105703
     21          6           0        4.825009   -3.425800    0.003342
     22          6           0        4.878543   -2.671969   -1.312011
     23          8           0        4.603519   -3.301328   -2.340350
     24          8           0        5.187343   -1.460928   -1.304495
     25          6           0       -2.038065   -2.720294   -0.250215
     26          6           0       -3.253043   -3.408878   -0.564864
     27          6           0       -4.252504   -2.466457   -0.768315
     28          6           0       -3.563974   -1.161605   -0.567349
     29          6           0       -3.362545   -4.955085   -0.650875
     30          6           0       -5.616689   -2.754928   -1.097199
     31          6           0       -5.989496   -4.055575   -1.462239
     32          6           0       -3.553367    1.320255   -0.504247
     33          6           0       -4.276152    2.586660   -0.666906
     34          6           0       -3.331378    3.587001   -0.412725
     35          6           0       -2.075300    2.884332   -0.111742
     36          6           0       -5.774692    2.708601   -1.042109
     37          6           0       -3.463641    5.020453   -0.422166
     38          6           0       -4.661180    5.610845   -0.847910
     39          6           0        0.334390    2.889506    0.470007
     40          6           0        1.567205    3.591243    0.772015
     41          6           0        2.518104    2.625842    0.954145
     42          6           0        1.860956    1.333775    0.763459
     43          6           0        1.782447    5.115316    0.869263
     44          6           0        3.987498    2.844492    1.279895
     45          6           0        4.652012    3.156957   -0.051716
     46          6           0        5.877113    2.322823   -0.332367
     47          8           0        6.947348    2.928444   -0.583958
     48          8           0        5.756685    1.070852   -0.306274
     49          7           0        0.539689   -1.375382    0.380049
     50          7           0       -2.219998   -1.319967   -0.240174
     51          7           0       -2.218378    1.485610   -0.169123
     52          7           0        0.522663    1.506179    0.470541
     53         26           0       -0.798746    0.067424    0.169230
     54          1           0        0.360095   -0.286030   -4.775808
     55          1           0        2.095025   -0.078557   -4.782185
     56          1           0        1.405393   -1.661181   -4.512411
     57          1           0        1.544887   -1.236992   -2.332869
     58          1           0        1.947476    0.434496   -2.623532
     59          1           0       -1.777726    1.632922   -3.562768
     60          1           0       -0.343131    2.439794   -2.976287
     61          1           0       -0.242959    1.372985   -4.356487
     62          1           0        7.079508    3.332059   -1.444904
     63          1           0        4.636505   -0.822257   -1.763054
     64          1           0        3.941072    2.992175   -0.834220
     65          1           0        4.933893    4.189142   -0.057902
     66          1           0        4.408840    1.957788    1.705486
     67          1           0        4.099420    3.669004    1.952616
     68          1           0        5.826553   -3.594500    0.340017
     69          1           0        4.357548   -4.373258   -0.166078
     70          1           0        4.125119   -3.265046    2.008769
     71          1           0        4.511056   -1.739133    1.265884
     72          1           0        1.389986   -5.400861   -0.391747
     73          1           0        2.876704   -5.198282    0.503629
     74          1           0        1.368074   -5.426019    1.355237
     75          1           0       -0.851626   -4.427051   -0.039462
     76          1           0        3.572697    0.073865    1.090859
     77          1           0        0.833905    5.610446    0.865425
     78          1           0        2.301061    5.345107    1.776531
     79          1           0        2.361706    5.447774    0.033302
     80          1           0       -0.884080    4.586442    0.227263
     81          1           0       -5.219762    0.098961   -0.927561
     82          1           0       -3.869301   -5.227116   -1.553149
     83          1           0       -2.381713   -5.382714   -0.649856
     84          1           0       -3.912094   -5.321112    0.191099
     85          1           0       -6.118106    1.779035   -1.445686
     86          1           0       -6.342778    2.949503   -0.167956
     87          1           0       -5.897932    3.481464   -1.771762
     88          1           0       -1.814565    1.750491    2.759729
     89          1           0       -1.898994    0.922155    5.138205
     90          1           0       -0.655121   -2.308513    2.829669
     91          1           0       -1.638369   -2.649346    5.630386
     92          1           0       -0.096189   -1.884363    5.929632
     93          1           0       -1.568219   -1.135408    6.499948
     94          1           0       -2.647600    5.635126   -0.104119
     95          1           0       -5.504252    4.997365   -1.088267
     96          1           0       -4.732456    6.675103   -0.932619
     97          1           0       -6.350935   -1.977310   -1.064123
     98          1           0       -6.655543   -4.210113   -2.285282
     99          1           0       -5.608097   -4.894111   -0.917912
 ---------------------------------------------------------------------

 SCF Done:  E(UPBE1PBE) =  -3879.19200526     A.U. after  123 cycles

 Alpha virt. eigenvalues --    0.91351   0.91720   0.91838   0.92005   0.92279
 Alpha virt. eigenvalues --    0.92545   0.93140   0.93207   0.93481   0.93961
 Alpha virt. eigenvalues --    0.94088   0.94383   0.94744   0.94866   0.94907

  Beta  occ. eigenvalues -- -256.51740 -89.13970 -30.28036 -26.10977 -26.10960
  Beta  occ. eigenvalues --  -26.10235 -19.33560 -19.31390 -19.26931 -19.23653
  Beta  occ. eigenvalues --  -14.54783 -14.50563 -14.49309 -14.48914 -14.48885
  Beta  occ. eigenvalues --  -14.48711 -10.44013 -10.40921 -10.38457 -10.36011
  Beta  occ. eigenvalues --  -10.35963 -10.35875 -10.35729 -10.35710 -10.35677
  Beta  occ. eigenvalues --  -10.35409 -10.35062 -10.34955 -10.34073 -10.33885
  Beta  occ. eigenvalues --  -10.33701 -10.33185 -10.32756 -10.32708 -10.32689
  Beta  occ. eigenvalues --  -10.32609 -10.32516 -10.32510 -10.32362 -10.32346
  Beta  occ. eigenvalues --  -10.32217 -10.32151 -10.32099 -10.31756 -10.31666
  Beta  occ. eigenvalues --  -10.31548 -10.31436 -10.31344 -10.30867 -10.30696
  Beta  occ. eigenvalues --  -10.30633 -10.30519 -10.30423 -10.29932 -10.29779
  Beta  occ. eigenvalues --  -10.29532 -10.29525  -8.11733  -6.05365  -6.05107
  Beta  occ. eigenvalues --   -6.04604  -3.60371  -2.36181  -2.35504  -2.34602
  Beta  occ. eigenvalues --   -1.24451  -1.22496  -1.17006  -1.11201  -1.08918
  Beta  occ. eigenvalues --   -1.07770  -1.06778  -1.06470  -1.05427  -1.01349
  Beta  occ. eigenvalues --   -0.94837  -0.93577  -0.93075  -0.92331  -0.91845
  Beta  occ. eigenvalues --   -0.91658  -0.91190  -0.90710  -0.90118  -0.88206
  Beta  occ. eigenvalues --   -0.86936  -0.86395  -0.85846  -0.84885  -0.84802
  Beta  occ. eigenvalues --   -0.82750  -0.82221  -0.81470  -0.81046  -0.80855
  Beta  occ. eigenvalues --   -0.79016  -0.78486  -0.78350  -0.76924  -0.75575
  Beta  occ. eigenvalues --   -0.74994  -0.74806  -0.74359  -0.72424  -0.72228
  Beta  occ. eigenvalues --   -0.70917  -0.70586  -0.70119  -0.68696  -0.67628
  Beta  occ. eigenvalues --   -0.66741  -0.65289  -0.64696  -0.63986  -0.63646
  Beta  occ. eigenvalues --   -0.62515  -0.61785  -0.61353  -0.60942  -0.59629
  Beta  occ. eigenvalues --   -0.59549  -0.58901  -0.58671  -0.58105  -0.57929
  Beta  occ. eigenvalues --   -0.57894  -0.57724  -0.57586  -0.57331  -0.56840
  Beta  occ. eigenvalues --   -0.55752  -0.55071  -0.54837  -0.54401  -0.54263
  Beta  occ. eigenvalues --   -0.54080  -0.53958  -0.53602  -0.53379  -0.53308
  Beta  occ. eigenvalues --   -0.52891  -0.52832  -0.52701  -0.52524  -0.52358
  Beta  occ. eigenvalues --   -0.52240  -0.51900  -0.51703  -0.51532  -0.51432
  Beta  occ. eigenvalues --   -0.51270  -0.51107  -0.50806  -0.50474  -0.50302
  Beta  occ. eigenvalues --   -0.50160  -0.50038  -0.49754  -0.49587  -0.49124
  Beta  occ. eigenvalues --   -0.49015  -0.48775  -0.48536  -0.48198  -0.47714
  Beta  occ. eigenvalues --   -0.47585  -0.47274  -0.46986  -0.46765  -0.46570
  Beta  occ. eigenvalues --   -0.46044  -0.45766  -0.45347  -0.44960  -0.44667
  Beta  occ. eigenvalues --   -0.44479  -0.44114  -0.43632  -0.42970  -0.42849
  Beta  occ. eigenvalues --   -0.42577  -0.42419  -0.42020  -0.41655  -0.41412
  Beta  occ. eigenvalues --   -0.41363  -0.40718  -0.39286  -0.39028  -0.38704
  Beta  occ. eigenvalues --   -0.38233  -0.36901  -0.36790  -0.36586  -0.35795
  Beta  occ. eigenvalues --   -0.34521  -0.33728  -0.33582  -0.32774  -0.31338
  Beta  occ. eigenvalues --   -0.30436  -0.29204  -0.28128
  Beta virt. eigenvalues --   -0.19738  -0.17474  -0.17330  -0.16216  -0.13167
  Beta virt. eigenvalues --   -0.11354  -0.10784  -0.10444  -0.08158  -0.07624
  Beta virt. eigenvalues --   -0.07270  -0.06194  -0.05818  -0.05316  -0.05291

 Mulliken charges and spin densities:
               1          2
     1  C   -0.346183  -0.000253
     2  C    0.121721   0.000242
     3  N   -0.202168  -0.000326
     4  C   -0.152209  -0.000292
     5  C    0.038009   0.005266
     6  N   -0.098955  -0.027957
     7  C   -0.343275  -0.002040
     8  C   -0.196557   0.000314
     9  S    0.034404  -0.027643
    10  C   -0.381380   0.002140
    11  C   -0.589960  -0.014116
    12  C   -0.503112  -0.016649
    13  C   -0.471249  -0.001943
    14  C   -0.562405   0.003225
    15  C    0.263326   0.009084
    16  C   -0.051336   0.000704
    17  C   -0.061958  -0.002370
    18  C    0.165452   0.012972
    19  C   -0.365034  -0.000091
    20  C   -0.211611  -0.000515
    21  C   -0.153138  -0.000139
    22  C    0.237092   0.000080
    23  O   -0.353501  -0.000005
    24  O   -0.302863  -0.000011
    25  C    0.368008   0.017870
    26  C   -0.047495  -0.017748
    27  C    0.007029   0.039946
    28  C    0.213183  -0.005344
    29  C   -0.440056   0.001440
    30  C   -0.172617  -0.081784
    31  C   -0.293291   0.118892
    32  C    0.329827   0.000034
    33  C   -0.123804  -0.002885
    34  C    0.060249  -0.001525
    35  C    0.233180  -0.002389
    36  C   -0.379893   0.000033
    37  C   -0.177509   0.001803
    38  C   -0.247576  -0.002943
    39  C    0.363278  -0.003508
    40  C   -0.115211   0.018976
    41  C   -0.064756   0.004494
    42  C    0.263939   0.011852
    43  C   -0.396457  -0.001123
    44  C   -0.196435  -0.001082
    45  C   -0.228220   0.000482
    46  C    0.321208   0.000075
    47  O   -0.339251   0.000044
    48  O   -0.354295  -0.000013
    49  N    0.042827  -0.042869
    50  N    0.013024  -0.039264
    51  N   -0.042845  -0.020375
    52  N    0.035847  -0.036017
    53  Fe  -0.221913   1.112193
    54  H    0.125116  -0.000026
    55  H    0.133192  -0.000439
    56  H    0.154500  -0.000118
    57  H    0.170196  -0.000128
    58  H    0.120781  -0.000029
    59  H    0.171245  -0.000027
    60  H    0.158390  -0.000376
    61  H    0.171300  -0.001031
    62  H    0.363177  -0.000001
    63  H    0.342458   0.000030
    64  H    0.136516  -0.000058
    65  H    0.114548   0.000002
    66  H    0.140951  -0.000018
    67  H    0.139866   0.000120
    68  H    0.134726  -0.000062
    69  H    0.106806   0.000004
    70  H    0.138568   0.000230
    71  H    0.130259  -0.000014
    72  H    0.148249  -0.000017
    73  H    0.128422  -0.000145
    74  H    0.147344   0.000017
    75  H    0.115670   0.000702
    76  H    0.146179   0.000553
    77  H    0.135228   0.000029
    78  H    0.148542   0.000375
    79  H    0.149746   0.000793
    80  H    0.094382  -0.000169
    81  H    0.095177  -0.000052
    82  H    0.173582  -0.000663
    83  H    0.130065   0.000101
    84  H    0.164825  -0.000655
    85  H    0.135026  -0.000027
    86  H    0.171684  -0.000190
    87  H    0.137464   0.000023
    88  H    0.185820  -0.000479
    89  H    0.246465  -0.000182
    90  H    0.159788  -0.000270
    91  H    0.157509   0.000035
    92  H    0.157602   0.000079
    93  H    0.130270  -0.000044
    94  H    0.118081  -0.000075
    95  H    0.126608   0.000131
    96  H    0.144715   0.000120
    97  H    0.138798   0.005608
    98  H    0.154096  -0.006475
    99  H    0.182983  -0.006119
 Sum of Mulliken charges =   1.00000   1.00000

 Dipole moment (field-independent basis, Debye):
    X=             -3.6496    Y=              5.5533    Z=              4.1379  Tot=              7.8282
 Quadrupole moment (field-independent basis, Debye-Ang):
   XX=           -259.3887   YY=           -247.3629   ZZ=           -261.5578
   XY=             30.1731   XZ=             -1.3748   YZ=            -19.4284

 Summary of Natural Population Analysis:

                                       Natural Population
                Natural  -----------------------------------------------
    Atom  No    Charge         Core      Valence    Rydberg      Total
 -----------------------------------------------------------------------
      C    1   -0.32125      0.99969     2.31834    0.00322     3.32125
      C    2    0.05963      0.99955     1.93189    0.00893     2.94037
      N    3   -0.23369      0.99968     2.72385    0.01016     3.73369
      C    4   -0.03752      0.99943     2.02865    0.00944     3.03752
      C    5    0.09865      0.99966     1.89091    0.01077     2.90135
      N    6   -0.18583      0.99969     2.66117    0.02497     3.68583
      C    7   -0.31076      0.99973     2.30459    0.00645     3.31076
      C    8   -0.26915      0.99966     2.26014    0.00935     3.26915
      S    9    0.25785      4.99952     2.72311    0.01953     7.74215
      C   10   -0.36770      0.99963     2.36015    0.00792     3.36770
      C   11   -0.12163      0.99954     2.11450    0.00759     3.12163
      C   12   -0.11977      0.99947     2.11206    0.00824     3.11977
      C   13   -0.11701      0.99949     2.10955    0.00797     3.11701
      C   14   -0.12178      0.99949     2.11435    0.00794     3.12178
      C   15    0.08290      0.99955     1.90729    0.01026     2.91710
      C   16   -0.00934      0.99947     2.00052    0.00935     3.00934
      C   17   -0.00746      0.99944     2.00012    0.00789     3.00746
      C   18    0.07644      0.99950     1.91361    0.01045     2.92356
      C   19   -0.31725      0.99968     2.31392    0.00364     3.31725
      C   20   -0.21527      0.99966     2.20869    0.00693     3.21527
      C   21   -0.24802      0.99962     2.23996    0.00844     3.24802
      C   22    0.38524      0.99976     1.59654    0.01846     2.61476
      O   23   -0.29587      0.99989     3.28358    0.01240     4.29587
      O   24   -0.32855      0.99980     3.31382    0.01493     4.32855
      C   25    0.08261      0.99947     1.90761    0.01032     2.91739
      C   26    0.00343      0.99946     1.98876    0.00836     2.99657
      C   27   -0.02471      0.99946     2.01543    0.00982     3.02471
      C   28    0.09630      0.99955     1.89400    0.01015     2.90370
      C   29   -0.31790      0.99969     2.31447    0.00374     3.31790
      C   30   -0.14014      0.99962     2.13125    0.00927     3.14014
      C   31   -0.11610      0.99971     2.11016    0.00623     3.11610
      C   32    0.07695      0.99952     1.91321    0.01032     2.92305
      C   33    0.00734      0.99949     1.98530    0.00786     2.99266
      C   34   -0.04825      0.99949     2.03921    0.00955     3.04825
      C   35    0.08498      0.99954     1.90528    0.01020     2.91502
      C   36   -0.31811      0.99968     2.31461    0.00382     3.31811
      C   37   -0.10979      0.99962     2.10177    0.00840     3.10979
      C   38   -0.16988      0.99970     2.16456    0.00562     3.16988
      C   39    0.07594      0.99950     1.91398    0.01058     2.92406
      C   40   -0.00336      0.99941     1.99591    0.00804     3.00336
      C   41   -0.00122      0.99945     1.99268    0.00909     3.00122
      C   42    0.08386      0.99954     1.90644    0.01017     2.91614
      C   43   -0.31768      0.99969     2.31435    0.00364     3.31768
      C   44   -0.21304      0.99966     2.20618    0.00720     3.21304
      C   45   -0.25921      0.99962     2.25099    0.00859     3.25921
      C   46    0.39326      0.99974     1.58967    0.01734     2.60674
      O   47   -0.33767      0.99979     3.32294    0.01494     4.33767
      O   48   -0.29202      0.99989     3.28043    0.01170     4.29202
      N   49   -0.23389      0.99967     2.70765    0.02656     3.73389
      N   50   -0.20473      0.99970     2.68327    0.02177     3.70473
      N   51   -0.22918      0.99970     2.70279    0.02669     3.72918
      N   52   -0.20858      0.99967     2.68825    0.02067     3.70858
     Fe   53    0.70595      8.99508     3.27327    0.02570    12.29405
      H   54    0.10505      0.00000     0.39429    0.00067     0.39495
      H   55    0.11093      0.00000     0.38855    0.00052     0.38907
      H   56    0.11776      0.00000     0.38175    0.00049     0.38224
      H   57    0.12605      0.00000     0.37304    0.00091     0.37395
      H   58    0.10502      0.00000     0.39360    0.00138     0.39498
      H   59    0.12386      0.00000     0.37575    0.00039     0.37614
      H   60    0.11400      0.00000     0.38517    0.00083     0.38600
      H   61    0.11838      0.00000     0.38093    0.00069     0.38162
      H   62    0.26121      0.00000     0.23771    0.00108     0.23879
      H   63    0.25881      0.00000     0.23928    0.00191     0.24119
      H   64    0.12033      0.00000     0.37907    0.00060     0.37967
      H   65    0.10945      0.00000     0.38980    0.00075     0.39055
      H   66    0.11939      0.00000     0.37987    0.00075     0.38061
      H   67    0.11510      0.00000     0.38421    0.00069     0.38490
      H   68    0.12044      0.00000     0.37895    0.00061     0.37956
      H   69    0.11397      0.00000     0.38528    0.00075     0.38603
      H   70    0.11557      0.00000     0.38371    0.00072     0.38443
      H   71    0.11476      0.00000     0.38452    0.00072     0.38524
      H   72    0.11521      0.00000     0.38412    0.00067     0.38479
      H   73    0.11227      0.00000     0.38696    0.00078     0.38773
      H   74    0.11296      0.00000     0.38632    0.00072     0.38704
      H   75    0.11299      0.00000     0.38548    0.00154     0.38701
      H   76    0.12130      0.00000     0.37745    0.00126     0.37870
      H   77    0.11095      0.00000     0.38849    0.00056     0.38905
      H   78    0.11484      0.00000     0.38441    0.00076     0.38516
      H   79    0.11377      0.00000     0.38548    0.00075     0.38623
      H   80    0.11087      0.00000     0.38789    0.00124     0.38913
      H   81    0.11047      0.00000     0.38787    0.00166     0.38953
      H   82    0.11948      0.00000     0.37963    0.00089     0.38052
      H   83    0.10811      0.00000     0.39126    0.00063     0.39189
      H   84    0.11280      0.00000     0.38641    0.00079     0.38720
      H   85    0.11117      0.00000     0.38823    0.00060     0.38883
      H   86    0.11771      0.00000     0.38148    0.00080     0.38229
      H   87    0.11253      0.00000     0.38659    0.00089     0.38747
      H   88    0.11466      0.00000     0.38460    0.00074     0.38534
      H   89    0.21242      0.00000     0.28682    0.00076     0.28758
      H   90    0.11826      0.00000     0.38100    0.00074     0.38174
      H   91    0.12030      0.00000     0.37916    0.00054     0.37970
      H   92    0.11893      0.00000     0.38047    0.00060     0.38107
      H   93    0.11186      0.00000     0.38757    0.00057     0.38814
      H   94    0.10545      0.00000     0.39384    0.00071     0.39455
      H   95    0.09552      0.00000     0.40360    0.00089     0.40448
      H   96    0.10386      0.00000     0.39552    0.00061     0.39614
      H   97    0.11148      0.00000     0.38780    0.00072     0.38852
      H   98    0.10253      0.00000     0.39671    0.00075     0.39747
      H   99    0.09922      0.00000     0.39986    0.00092     0.40078
 =======================================================================
   * Total *    1.00000     64.97470   137.40619    0.61911   203.00000

 Normal termination of Gaussian 16 at Mon Aug 29 22:36:56 2022.
