 Gaussian 16, Revision A.03,
 Gaussian 16:  ES64L-G16RevA.03 25-Dec-2016

 ---------------------------------------------------------------------
 # polar def2tzvp empiricaldispersion=gd3bj int=grid=ultrafine pbe1pbe
 ---------------------------------------------------------------------

 ---------
 1v9z_II_S
 ---------
 Symbolic Z-matrix:
 Charge =  0 Multiplicity = 1

                         Standard orientation:
 ---------------------------------------------------------------------
 Center     Atomic      Atomic             Coordinates (Angstroms)
 Number     Number       Type             X           Y           Z
 ---------------------------------------------------------------------
      1          6           0       -1.129545   -1.711640    5.712280
      2          6           0       -1.249196   -0.967192    4.425822
      3          7           0       -1.627878    0.358608    4.357877
      4          6           0       -0.974828   -1.339719    3.152353
      5          6           0       -1.576969    0.766636    3.106828
      6          7           0       -1.183182   -0.243499    2.353137
      7          6           0        1.280649   -0.612713   -4.339049
      8          6           0        1.254445   -0.347908   -2.852556
      9         16           0       -0.387448    0.141992   -2.309470
     10          6           0       -0.722113    1.540213   -3.414496
     11          6           0        2.527621    0.073469    0.861262
     12          6           0       -0.844123   -3.357630   -0.005085
     13          6           0       -4.178398    0.087597   -0.681936
     14          6           0       -0.874929    3.516906    0.197113
     15          6           0        1.879312   -1.193094    0.669953
     16          6           0        2.570433   -2.487983    0.758376
     17          6           0        1.607039   -3.456254    0.512790
     18          6           0        0.366018   -2.750389    0.281707
     19          6           0        1.827477   -4.988715    0.493486
     20          6           0        4.057861   -2.695091    1.105703
     21          6           0        4.825009   -3.425800    0.003342
     22          6           0        4.878543   -2.671969   -1.312011
     23          8           0        4.603519   -3.301328   -2.340350
     24          8           0        5.187343   -1.460928   -1.304495
     25          6           0       -2.038065   -2.720294   -0.250215
     26          6           0       -3.253043   -3.408878   -0.564864
     27          6           0       -4.252504   -2.466457   -0.768315
     28          6           0       -3.563974   -1.161605   -0.567349
     29          6           0       -3.362545   -4.955085   -0.650875
     30          6           0       -5.616689   -2.754928   -1.097199
     31          6           0       -5.989496   -4.055575   -1.462239
     32          6           0       -3.553367    1.320255   -0.504247
     33          6           0       -4.276152    2.586660   -0.666906
     34          6           0       -3.331378    3.587001   -0.412725
     35          6           0       -2.075300    2.884332   -0.111742
     36          6           0       -5.774692    2.708601   -1.042109
     37          6           0       -3.463641    5.020453   -0.422166
     38          6           0       -4.661180    5.610845   -0.847910
     39          6           0        0.334390    2.889506    0.470007
     40          6           0        1.567205    3.591243    0.772015
     41          6           0        2.518104    2.625842    0.954145
     42          6           0        1.860956    1.333775    0.763459
     43          6           0        1.782447    5.115316    0.869263
     44          6           0        3.987498    2.844492    1.279895
     45          6           0        4.652012    3.156957   -0.051716
     46          6           0        5.877113    2.322823   -0.332367
     47          8           0        6.947348    2.928444   -0.583958
     48          8           0        5.756685    1.070852   -0.306274
     49          7           0        0.539689   -1.375382    0.380049
     50          7           0       -2.219998   -1.319967   -0.240174
     51          7           0       -2.218378    1.485610   -0.169123
     52          7           0        0.522663    1.506179    0.470541
     53         26           0       -0.798746    0.067424    0.169230
     54          1           0        0.360095   -0.286030   -4.775808
     55          1           0        2.095025   -0.078557   -4.782185
     56          1           0        1.405393   -1.661181   -4.512411
     57          1           0        1.544887   -1.236992   -2.332869
     58          1           0        1.947476    0.434496   -2.623532
     59          1           0       -1.777726    1.632922   -3.562768
     60          1           0       -0.343131    2.439794   -2.976287
     61          1           0       -0.242959    1.372985   -4.356487
     62          1           0        7.079508    3.332059   -1.444904
     63          1           0        4.636505   -0.822257   -1.763054
     64          1           0        3.941072    2.992175   -0.834220
     65          1           0        4.933893    4.189142   -0.057902
     66          1           0        4.408840    1.957788    1.705486
     67          1           0        4.099420    3.669004    1.952616
     68          1           0        5.826553   -3.594500    0.340017
     69          1           0        4.357548   -4.373258   -0.166078
     70          1           0        4.125119   -3.265046    2.008769
     71          1           0        4.511056   -1.739133    1.265884
     72          1           0        1.389986   -5.400861   -0.391747
     73          1           0        2.876704   -5.198282    0.503629
     74          1           0        1.368074   -5.426019    1.355237
     75          1           0       -0.851626   -4.427051   -0.039462
     76          1           0        3.572697    0.073865    1.090859
     77          1           0        0.833905    5.610446    0.865425
     78          1           0        2.301061    5.345107    1.776531
     79          1           0        2.361706    5.447774    0.033302
     80          1           0       -0.884080    4.586442    0.227263
     81          1           0       -5.219762    0.098961   -0.927561
     82          1           0       -3.869301   -5.227116   -1.553149
     83          1           0       -2.381713   -5.382714   -0.649856
     84          1           0       -3.912094   -5.321112    0.191099
     85          1           0       -6.118106    1.779035   -1.445686
     86          1           0       -6.342778    2.949503   -0.167956
     87          1           0       -5.897932    3.481464   -1.771762
     88          1           0       -1.814565    1.750491    2.759729
     89          1           0       -1.898994    0.922155    5.138205
     90          1           0       -0.655121   -2.308513    2.829669
     91          1           0       -1.638369   -2.649346    5.630386
     92          1           0       -0.096189   -1.884363    5.929632
     93          1           0       -1.568219   -1.135408    6.499948
     94          1           0       -2.647600    5.635126   -0.104119
     95          1           0       -5.504252    4.997365   -1.088267
     96          1           0       -4.732456    6.675103   -0.932619
     97          1           0       -6.350935   -1.977310   -1.064123
     98          1           0       -6.655543   -4.210113   -2.285282
     99          1           0       -5.608097   -4.894111   -0.917912
 ---------------------------------------------------------------------

 SCF Done:  E(RPBE1PBE) =  -3879.38157572     A.U. after   23 cycles

 The electronic state is 1-A.
 Alpha  occ. eigenvalues -- -256.31452 -89.01334 -30.08160 -25.91037 -25.90616
 Alpha  occ. eigenvalues --  -25.90566 -19.26543 -19.23585 -19.19378 -19.15973
 Alpha  occ. eigenvalues --  -14.44622 -14.38443 -14.37219 -14.36938 -14.36819
 Alpha  occ. eigenvalues --  -14.36813 -10.36405 -10.33200 -10.27547 -10.25918
 Alpha  occ. eigenvalues --  -10.24616 -10.24575 -10.24563 -10.24496 -10.24334
 Alpha  occ. eigenvalues --  -10.24329 -10.23884 -10.23648 -10.23339 -10.23289
 Alpha  occ. eigenvalues --  -10.23263 -10.23153 -10.23094 -10.23058 -10.23013
 Alpha  occ. eigenvalues --  -10.22928 -10.22919 -10.22283 -10.22148 -10.22095
 Alpha  occ. eigenvalues --  -10.22030 -10.22014 -10.21989 -10.21925 -10.21907
 Alpha  occ. eigenvalues --  -10.21896 -10.21884 -10.21580 -10.21524 -10.21440
 Alpha  occ. eigenvalues --  -10.21404 -10.21074 -10.20975 -10.20879 -10.20812
 Alpha  occ. eigenvalues --  -10.20686 -10.19955  -7.99144  -5.92830  -5.92510
 Alpha  occ. eigenvalues --   -5.91942  -3.42802  -2.18851  -2.18065  -2.17965
 Alpha  occ. eigenvalues --   -1.17347  -1.14706  -1.06446  -1.03688  -1.01236
 Alpha  occ. eigenvalues --   -0.96267  -0.95358  -0.95139  -0.94064  -0.90479
 Alpha  occ. eigenvalues --   -0.84208  -0.83719  -0.82598  -0.82388  -0.81957
 Alpha  occ. eigenvalues --   -0.81799  -0.81552  -0.80025  -0.79754  -0.78455
 Alpha  occ. eigenvalues --   -0.77480  -0.76145  -0.75862  -0.75124  -0.74135
 Alpha  occ. eigenvalues --   -0.73205  -0.72644  -0.72074  -0.71535  -0.71017
 Alpha  occ. eigenvalues --   -0.70150  -0.68799  -0.68264  -0.67799  -0.66622
 Alpha  occ. eigenvalues --   -0.64976  -0.64433  -0.64326  -0.63564  -0.62157
 Alpha  occ. eigenvalues --   -0.61278  -0.60720  -0.59452  -0.58172  -0.56647
 Alpha  occ. eigenvalues --   -0.56449  -0.55240  -0.54597  -0.54055  -0.53929
 Alpha  occ. eigenvalues --   -0.52848  -0.51783  -0.51575  -0.51338  -0.50714
 Alpha  occ. eigenvalues --   -0.50109  -0.49980  -0.49354  -0.48495  -0.48425
 Alpha  occ. eigenvalues --   -0.48108  -0.47977  -0.47660  -0.47388  -0.47285
 Alpha  occ. eigenvalues --   -0.46644  -0.46367  -0.45071  -0.44465  -0.44344
 Alpha  occ. eigenvalues --   -0.44180  -0.44079  -0.43835  -0.43670  -0.43599
 Alpha  occ. eigenvalues --   -0.43411  -0.43363  -0.43258  -0.43114  -0.42954
 Alpha  occ. eigenvalues --   -0.42624  -0.42530  -0.42364  -0.42187  -0.42122
 Alpha  occ. eigenvalues --   -0.41524  -0.41414  -0.41126  -0.40909  -0.40877
 Alpha  occ. eigenvalues --   -0.40576  -0.40468  -0.39869  -0.39619  -0.39111
 Alpha  occ. eigenvalues --   -0.38992  -0.38593  -0.38061  -0.38007  -0.37675
 Alpha  occ. eigenvalues --   -0.37471  -0.37303  -0.37053  -0.36728  -0.36305
 Alpha  occ. eigenvalues --   -0.35901  -0.35827  -0.35562  -0.35154  -0.34871
 Alpha  occ. eigenvalues --   -0.34602  -0.34402  -0.33717  -0.33451  -0.32414
 Alpha  occ. eigenvalues --   -0.32052  -0.31758  -0.31397  -0.31353  -0.31230
 Alpha  occ. eigenvalues --   -0.30488  -0.30210  -0.29883  -0.28981  -0.28511
 Alpha  occ. eigenvalues --   -0.26935  -0.26545  -0.25953  -0.25210  -0.24423
 Alpha  occ. eigenvalues --   -0.24147  -0.22689  -0.21966  -0.20815  -0.20333
 Alpha  occ. eigenvalues --   -0.18744  -0.18479  -0.18197  -0.17763
 Alpha virt. eigenvalues --   -0.07078  -0.06713  -0.03489  -0.02915  -0.01320
 Alpha virt. eigenvalues --    0.00358   0.01057   0.01519   0.02211   0.02590
 Alpha virt. eigenvalues --    0.02823   0.03260   0.03852   0.04602   0.04868

 Mulliken charges:
               1
     1  C   -0.357465
     2  C    0.131112
     3  N   -0.216252
     4  C   -0.155353
     5  C    0.028781
     6  N   -0.112423
     7  C   -0.335444
     8  C   -0.195259
     9  S   -0.004492
    10  C   -0.383316
    11  C   -0.602691
    12  C   -0.508884
    13  C   -0.480573
    14  C   -0.572040
    15  C    0.255413
    16  C   -0.053965
    17  C   -0.061327
    18  C    0.160796
    19  C   -0.379689
    20  C   -0.218281
    21  C   -0.142747
    22  C    0.241260
    23  O   -0.364078
    24  O   -0.307610
    25  C    0.356491
    26  C   -0.045888
    27  C   -0.004853
    28  C    0.207889
    29  C   -0.447729
    30  C   -0.172802
    31  C   -0.334767
    32  C    0.322580
    33  C   -0.118887
    34  C    0.047832
    35  C    0.230841
    36  C   -0.389992
    37  C   -0.171662
    38  C   -0.275473
    39  C    0.353950
    40  C   -0.120516
    41  C   -0.067548
    42  C    0.252185
    43  C   -0.414004
    44  C   -0.207597
    45  C   -0.222036
    46  C    0.312536
    47  O   -0.348955
    48  O   -0.348574
    49  N    0.022180
    50  N    0.009276
    51  N   -0.057093
    52  N    0.033350
    53  Fe  -0.233832
    54  H    0.119921
    55  H    0.110737
    56  H    0.138979
    57  H    0.162993
    58  H    0.105065
    59  H    0.157897
    60  H    0.146436
    61  H    0.145760
    62  H    0.355879
    63  H    0.346785
    64  H    0.143130
    65  H    0.097402
    66  H    0.132822
    67  H    0.124030
    68  H    0.114460
    69  H    0.099824
    70  H    0.122764
    71  H    0.124642
    72  H    0.140803
    73  H    0.113975
    74  H    0.134456
    75  H    0.095713
    76  H    0.129035
    77  H    0.127401
    78  H    0.132518
    79  H    0.134739
    80  H    0.075859
    81  H    0.076680
    82  H    0.161313
    83  H    0.119799
    84  H    0.148153
    85  H    0.128241
    86  H    0.154179
    87  H    0.125785
    88  H    0.172863
    89  H    0.227112
    90  H    0.145295
    91  H    0.147883
    92  H    0.146677
    93  H    0.115772
    94  H    0.105374
    95  H    0.115673
    96  H    0.122553
    97  H    0.122159
    98  H    0.130638
    99  H    0.167457
 Sum of Mulliken charges =  -0.00000

 Dipole moment (field-independent basis, Debye):
    X=              0.5994    Y=              5.5016    Z=              4.5360  Tot=              7.1556
 Quadrupole moment (field-independent basis, Debye-Ang):
   XX=           -323.3997   YY=           -303.2021   ZZ=           -292.2082
   XY=             27.1418   XZ=             -6.0198   YZ=            -19.1736

  Exact polarizability: 847.279   5.542 838.856  75.995   3.727 441.527
 Approx polarizability:1501.603   6.5491569.327 210.105  24.626 688.779

 Normal termination of Gaussian 16 at Fri Aug 26 18:19:26 2022.
