 Gaussian 16, Revision A.03,
 Gaussian 16:  ES64L-G16RevA.03 25-Dec-2016

 ----------------------------------------------------------------------
 # PBE1PBE/def2TZVP empiricaldispersion=GD3BJ scf=maxcycle=999 geom=che
 ck pop=nbo
 ----------------------------------------------------------------------

 ----------
 1vb6_III_D
 ----------
 Structure from the checkpoint file:  "1vb6_III_D.chk"
 Charge =  1 Multiplicity = 2

                         Standard orientation:
 ---------------------------------------------------------------------
 Center     Atomic      Atomic             Coordinates (Angstroms)
 Number     Number       Type             X           Y           Z
 ---------------------------------------------------------------------
      1          6           0       -1.396554   -1.101004    5.656971
      2          6           0       -1.380639   -0.417092    4.324470
      3          7           0       -1.673206    0.920733    4.168633
      4          6           0       -1.080271   -0.883599    3.090271
      5          6           0       -1.551138    1.251094    2.896442
      6          7           0       -1.192228    0.174835    2.219261
      7          6           0        1.025374   -1.346049   -4.059946
      8          6           0        1.130337   -0.846071   -2.607155
      9         16           0       -0.296608    0.204129   -2.225059
     10          6           0       -1.560050   -0.643039   -3.172906
     11          6           0        2.583962   -0.225353    0.799760
     12          6           0       -1.162670   -3.264912    0.157802
     13          6           0       -4.110180    0.499087   -0.618361
     14          6           0       -0.396182    3.563383    0.009850
     15          6           0        1.787548   -1.404121    0.704534
     16          6           0        2.330100   -2.749044    0.871241
     17          6           0        1.268896   -3.612154    0.681118
     18          6           0        0.108143   -2.789160    0.406390
     19          6           0        1.323437   -5.153880    0.751353
     20          6           0        3.766326   -3.084715    1.314609
     21          6           0        4.534221   -3.867694    0.259969
     22          6           0        4.719753   -3.105984   -1.032566
     23          8           0        4.297420   -3.633057   -2.063527
     24          8           0        5.273792   -1.984294   -1.003501
     25          6           0       -2.284402   -2.507133   -0.111889
     26          6           0       -3.580489   -3.068127   -0.371972
     27          6           0       -4.474856   -2.029883   -0.594401
     28          6           0       -3.637550   -0.801682   -0.463788
     29          6           0       -3.864418   -4.596242   -0.391326
     30          6           0       -5.876966   -2.180590   -0.884216
     31          6           0       -6.147325   -3.518703   -1.200891
     32          6           0       -3.340891    1.656824   -0.510849
     33          6           0       -3.916739    2.990657   -0.709328
     34          6           0       -2.854207    3.885391   -0.528800
     35          6           0       -1.677623    3.059157   -0.232234
     36          6           0       -5.403078    3.267557   -1.050898
     37          6           0       -2.825192    5.319916   -0.607101
     38          6           0       -4.066418    5.788298   -1.058653
     39          6           0        0.749509    2.810135    0.275483
     40          6           0        2.079275    3.366454    0.500015
     41          6           0        2.911293    2.302642    0.712197
     42          6           0        2.081337    1.095769    0.634234
     43          6           0        2.486706    4.852297    0.480300
     44          6           0        4.420909    2.346326    0.981282
     45          6           0        5.080535    1.979362   -0.354628
     46          6           0        6.540383    2.395477   -0.504025
     47          8           0        7.073924    2.237147   -1.633635
     48          8           0        7.139707    2.871829    0.491383
     49          7           0        0.435067   -1.445494    0.429580
     50          7           0       -2.307049   -1.093084   -0.158522
     51          7           0       -1.988964    1.683592   -0.216777
     52          7           0        0.765058    1.417251    0.359527
     53         26           0       -0.724467    0.138283    0.151987
     54          1           0       -2.055589    0.057087   -3.812565
     55          1           0       -1.106924   -1.409528   -3.766263
     56          1           0       -2.271903   -1.082431   -2.505747
     57          1           0        1.144904   -1.683910   -1.941788
     58          1           0        2.031096   -0.280830   -2.488685
     59          1           0        0.144211   -0.942389   -4.513280
     60          1           0        1.886736   -1.028436   -4.609562
     61          1           0        0.972245   -2.414710   -4.066405
     62          1           0       -0.807044   -1.887203    2.839219
     63          1           0       -1.714954    2.224676    2.483887
     64          1           0       -1.936909    1.544100    4.904754
     65          1           0       -2.007086   -1.977910    5.600528
     66          1           0       -0.399062   -1.377718    5.927785
     67          1           0       -1.794883   -0.435941    6.394485
     68          1           0        6.526520    2.063782   -2.402982
     69          1           0        5.021626    0.917886   -0.475859
     70          1           0        4.519882    2.439168   -1.141487
     71          1           0        4.684377    1.632405    1.733480
     72          1           0        4.715620    3.329802    1.282646
     73          1           0        1.609385    5.461939    0.420773
     74          1           0        3.023878    5.086741    1.375500
     75          1           0        3.109791    5.040035   -0.369064
     76          1           0       -0.282511    4.627137   -0.010310
     77          1           0       -2.621736    5.725954    0.361733
     78          1           0       -2.059339    5.624451   -1.289470
     79          1           0       -3.932202    6.719133   -1.568978
     80          1           0       -4.495343    5.072797   -1.728713
     81          1           0       -4.719411    5.930584   -0.223037
     82          1           0       -5.862019    2.367119   -1.402301
     83          1           0       -5.912837    3.609115   -0.174322
     84          1           0       -5.460422    4.017587   -1.811863
     85          1           0       -5.150395    0.620085   -0.837933
     86          1           0       -6.450997   -1.893702   -0.028013
     87          1           0       -6.138603   -1.557810   -1.714030
     88          1           0       -6.088113   -4.114130   -0.313839
     89          1           0       -7.130182   -3.595213   -1.616868
     90          1           0       -5.430103   -3.868444   -1.913754
     91          1           0       -4.396703   -4.848829   -1.284507
     92          1           0       -2.938281   -5.131459   -0.364621
     93          1           0       -4.453719   -4.860353    0.461827
     94          1           0       -1.291613   -4.326961    0.175848
     95          1           0        0.845476   -5.567382   -0.112052
     96          1           0        2.344090   -5.473659    0.781501
     97          1           0        0.818535   -5.488824    1.633276
     98          1           0        3.626819   -0.341498    1.009184
     99          1           0        3.724093   -3.664539    2.212897
    100          1           0        4.288036   -2.172432    1.515749
    101          1           0        5.497973   -4.117047    0.652276
    102          1           0        4.003520   -4.773045    0.051170
    103          1           0        3.361230   -3.596065   -2.272762
 ---------------------------------------------------------------------

 SCF Done:  E(UPBE1PBE) =  -3881.64764555     A.U. after   72 cycles

 Alpha virt. eigenvalues --    0.97506   0.97714   0.98015   0.98427   0.98927
 Alpha virt. eigenvalues --    0.99134   0.99251   0.99594   0.99718   0.99887
 Alpha virt. eigenvalues --    1.00601   1.00816   1.01141   1.01475   1.01638

  Beta  occ. eigenvalues -- -256.51283 -89.15089 -30.27648 -26.10678 -26.10563
  Beta  occ. eigenvalues --  -26.09752 -19.33585 -19.32974 -19.26383 -19.23516
  Beta  occ. eigenvalues --  -14.55085 -14.50930 -14.49283 -14.49245 -14.49091
  Beta  occ. eigenvalues --  -14.49086 -10.43360 -10.41374 -10.38819 -10.36298
  Beta  occ. eigenvalues --  -10.36066 -10.35986 -10.35925 -10.35841 -10.35750
  Beta  occ. eigenvalues --  -10.35612 -10.35590 -10.35376 -10.34948 -10.33974
  Beta  occ. eigenvalues --  -10.33402 -10.33356 -10.33190 -10.32978 -10.32966
  Beta  occ. eigenvalues --  -10.32741 -10.32557 -10.32376 -10.32291 -10.32284
  Beta  occ. eigenvalues --  -10.32157 -10.32144 -10.32024 -10.31892 -10.31726
  Beta  occ. eigenvalues --  -10.31161 -10.31053 -10.30900 -10.30382 -10.30299
  Beta  occ. eigenvalues --  -10.30230 -10.30045 -10.29946 -10.29308 -10.28972
  Beta  occ. eigenvalues --  -10.27097 -10.26568  -8.12840  -6.06443  -6.06181
  Beta  occ. eigenvalues --   -6.05772  -3.59972  -2.35648  -2.35068  -2.34403
  Beta  occ. eigenvalues --   -1.25509  -1.22672  -1.17283  -1.10914  -1.08298
  Beta  occ. eigenvalues --   -1.08225  -1.07152  -1.06679  -1.05653  -1.01761
  Beta  occ. eigenvalues --   -0.95965  -0.94896  -0.94595  -0.93419  -0.92895
  Beta  occ. eigenvalues --   -0.92139  -0.91384  -0.90841  -0.90538  -0.88344
  Beta  occ. eigenvalues --   -0.87532  -0.86786  -0.86651  -0.86400  -0.85233
  Beta  occ. eigenvalues --   -0.83456  -0.82496  -0.82169  -0.81762  -0.81070
  Beta  occ. eigenvalues --   -0.79924  -0.79276  -0.78917  -0.76817  -0.75725
  Beta  occ. eigenvalues --   -0.75314  -0.75217  -0.74212  -0.73457  -0.72738
  Beta  occ. eigenvalues --   -0.72573  -0.72424  -0.70815  -0.69002  -0.67960
  Beta  occ. eigenvalues --   -0.67043  -0.66142  -0.65042  -0.64883  -0.63869
  Beta  occ. eigenvalues --   -0.62715  -0.62279  -0.61915  -0.61195  -0.60558
  Beta  occ. eigenvalues --   -0.60336  -0.60025  -0.59173  -0.58741  -0.58605
  Beta  occ. eigenvalues --   -0.58443  -0.58371  -0.58176  -0.58040  -0.57949
  Beta  occ. eigenvalues --   -0.57144  -0.56547  -0.56067  -0.55621  -0.55054
  Beta  occ. eigenvalues --   -0.54611  -0.54007  -0.53899  -0.53677  -0.53395
  Beta  occ. eigenvalues --   -0.53193  -0.53131  -0.53000  -0.52903  -0.52622
  Beta  occ. eigenvalues --   -0.52457  -0.52444  -0.52399  -0.52147  -0.51935
  Beta  occ. eigenvalues --   -0.51821  -0.51664  -0.51404  -0.50970  -0.50802
  Beta  occ. eigenvalues --   -0.50668  -0.50382  -0.50279  -0.50174  -0.49779
  Beta  occ. eigenvalues --   -0.49567  -0.49000  -0.48763  -0.48533  -0.48313
  Beta  occ. eigenvalues --   -0.47961  -0.47719  -0.47325  -0.47082  -0.47030
  Beta  occ. eigenvalues --   -0.46756  -0.46467  -0.46110  -0.45550  -0.45246
  Beta  occ. eigenvalues --   -0.45199  -0.44745  -0.44499  -0.44170  -0.43875
  Beta  occ. eigenvalues --   -0.43123  -0.42941  -0.42681  -0.42521  -0.42497
  Beta  occ. eigenvalues --   -0.41954  -0.41856  -0.41678  -0.41512  -0.41287
  Beta  occ. eigenvalues --   -0.39008  -0.38628  -0.38319  -0.38296  -0.37577
  Beta  occ. eigenvalues --   -0.36298  -0.36151  -0.35024  -0.34507  -0.34125
  Beta  occ. eigenvalues --   -0.33654  -0.33283  -0.32544  -0.29677  -0.29143
  Beta virt. eigenvalues --   -0.19614  -0.17697  -0.15714  -0.15114  -0.11469
  Beta virt. eigenvalues --   -0.11182  -0.10245  -0.08027  -0.07767  -0.07302
  Beta virt. eigenvalues --   -0.06164  -0.06000  -0.05515  -0.05362  -0.04560

 Mulliken charges and spin densities:
               1          2
     1  C   -0.348048  -0.000419
     2  C    0.121853  -0.000909
     3  N   -0.201948  -0.000500
     4  C   -0.157079   0.000908
     5  C    0.030961   0.003731
     6  N   -0.015592  -0.041470
     7  C   -0.379363  -0.001509
     8  C   -0.163530   0.004019
     9  S    0.070250  -0.055001
    10  C   -0.363314   0.003513
    11  C   -0.542467  -0.005422
    12  C   -0.542128  -0.007492
    13  C   -0.507914  -0.004781
    14  C   -0.523536  -0.008854
    15  C    0.315522   0.012377
    16  C   -0.117076  -0.006188
    17  C   -0.077578   0.016113
    18  C    0.187866   0.001245
    19  C   -0.378846  -0.000987
    20  C   -0.208355  -0.000379
    21  C   -0.221326  -0.000165
    22  C    0.310334   0.000016
    23  O   -0.322502   0.000000
    24  O   -0.356750   0.000014
    25  C    0.388946   0.002248
    26  C   -0.109660   0.015827
    27  C   -0.045524  -0.003884
    28  C    0.131227   0.010575
    29  C   -0.355079  -0.000894
    30  C   -0.157525  -0.000794
    31  C   -0.317713  -0.000098
    32  C    0.370009   0.010893
    33  C   -0.172256  -0.005981
    34  C   -0.056307   0.015025
    35  C    0.178447   0.003605
    36  C   -0.320111  -0.000171
    37  C   -0.139186  -0.001023
    38  C   -0.312800  -0.000007
    39  C    0.406995   0.002458
    40  C   -0.110531   0.020538
    41  C   -0.035361  -0.002551
    42  C    0.236455   0.012744
    43  C   -0.403658  -0.001029
    44  C   -0.194988  -0.001037
    45  C   -0.352743   0.000193
    46  C    0.325509  -0.000016
    47  O   -0.284265  -0.000003
    48  O   -0.362969  -0.000015
    49  N   -0.000916  -0.040250
    50  N   -0.019401  -0.038037
    51  N   -0.030009  -0.037870
    52  N    0.047868  -0.043852
    53  Fe  -0.322304   1.176520
    54  H    0.169625  -0.001348
    55  H    0.160966  -0.000094
    56  H    0.165730  -0.001510
    57  H    0.094148  -0.001614
    58  H    0.154595  -0.000278
    59  H    0.148388   0.000013
    60  H    0.152291  -0.000050
    61  H    0.135039  -0.000206
    62  H    0.160576  -0.000378
    63  H    0.186626  -0.000464
    64  H    0.247310  -0.000199
    65  H    0.156511   0.000025
    66  H    0.158856   0.000033
    67  H    0.130288  -0.000070
    68  H    0.342760  -0.000001
    69  H    0.180840   0.000015
    70  H    0.132929  -0.000049
    71  H    0.131846   0.000032
    72  H    0.139504  -0.000098
    73  H    0.130660   0.000007
    74  H    0.159285   0.000537
    75  H    0.151498   0.000871
    76  H    0.135893   0.000186
    77  H    0.115309   0.000918
    78  H    0.112601   0.000752
    79  H    0.134220  -0.000047
    80  H    0.077966   0.000008
    81  H    0.118389  -0.000031
    82  H    0.130177  -0.000040
    83  H    0.147830  -0.000154
    84  H    0.150212  -0.000156
    85  H    0.121955   0.000149
    86  H    0.114079   0.000025
    87  H    0.104006  -0.000017
    88  H    0.118127  -0.000004
    89  H    0.136561  -0.000072
    90  H    0.103117  -0.000022
    91  H    0.151724   0.000423
    92  H    0.121620   0.000022
    93  H    0.160457   0.000633
    94  H    0.117289   0.000130
    95  H    0.143377   0.000415
    96  H    0.138016  -0.000015
    97  H    0.154990   0.000699
    98  H    0.139346   0.000222
    99  H    0.141975  -0.000135
   100  H    0.128673  -0.000062
   101  H    0.146131  -0.000008
   102  H    0.102299   0.000013
   103  H    0.351807   0.000019
 Sum of Mulliken charges =   1.00000   1.00000

 Dipole moment (field-independent basis, Debye):
    X=            -10.5324    Y=             -2.9150    Z=              1.1629  Tot=             10.9901
 Quadrupole moment (field-independent basis, Debye-Ang):
   XX=           -316.4812   YY=           -252.4213   ZZ=           -257.9016
   XY=            -24.0498   XZ=            -15.3523   YZ=             -0.5765

 Summary of Natural Population Analysis:

                                       Natural Population
                Natural  -----------------------------------------------
    Atom  No    Charge         Core      Valence    Rydberg      Total
 -----------------------------------------------------------------------
      C    1   -0.32095      0.99969     2.31808    0.00317     3.32095
      C    2    0.06051      0.99954     1.93103    0.00892     2.93949
      N    3   -0.23390      0.99968     2.72408    0.01015     3.73390
      C    4   -0.03576      0.99942     2.02720    0.00914     3.03576
      C    5    0.10115      0.99966     1.88838    0.01081     2.89885
      N    6   -0.19465      0.99970     2.66740    0.02756     3.69465
      C    7   -0.31252      0.99972     2.30850    0.00430     3.31252
      C    8   -0.26673      0.99966     2.25770    0.00937     3.26673
      S    9    0.27873      4.99943     2.70303    0.01880     7.72127
      C   10   -0.38168      0.99963     2.37337    0.00869     3.38168
      C   11   -0.11525      0.99953     2.10811    0.00762     3.11525
      C   12   -0.11994      0.99947     2.11207    0.00840     3.11994
      C   13   -0.12153      0.99948     2.11396    0.00809     3.12153
      C   14   -0.12184      0.99950     2.11442    0.00792     3.12184
      C   15    0.08551      0.99953     1.90434    0.01061     2.91449
      C   16   -0.02072      0.99945     2.01143    0.00984     3.02072
      C   17   -0.00390      0.99944     1.99630    0.00816     3.00390
      C   18    0.06351      0.99950     1.92653    0.01047     2.93649
      C   19   -0.32039      0.99969     2.31698    0.00372     3.32039
      C   20   -0.20889      0.99965     2.20201    0.00722     3.20889
      C   21   -0.25553      0.99962     2.24755    0.00835     3.25553
      C   22    0.39258      0.99974     1.58977    0.01791     2.60742
      O   23   -0.33802      0.99977     3.32263    0.01562     4.33802
      O   24   -0.29092      0.99989     3.27935    0.01168     4.29092
      C   25    0.07051      0.99947     1.91956    0.01045     2.92949
      C   26   -0.00037      0.99946     1.99271    0.00821     3.00037
      C   27   -0.00424      0.99950     1.99631    0.00843     3.00424
      C   28    0.09337      0.99954     1.89683    0.01025     2.90663
      C   29   -0.31576      0.99968     2.31206    0.00402     3.31576
      C   30   -0.22492      0.99960     2.21776    0.00755     3.22492
      C   31   -0.28759      0.99968     2.28049    0.00741     3.28759
      C   32    0.08856      0.99952     1.90130    0.01062     2.91144
      C   33   -0.01059      0.99949     2.00323    0.00787     3.01059
      C   34    0.00595      0.99952     1.98625    0.00829     2.99405
      C   35    0.08025      0.99954     1.91042    0.00980     2.91975
      C   36   -0.31259      0.99967     2.30906    0.00386     3.31259
      C   37   -0.22709      0.99961     2.21985    0.00763     3.22709
      C   38   -0.29217      0.99968     2.28541    0.00708     3.29217
      C   39    0.08108      0.99952     1.90911    0.01029     2.91892
      C   40    0.00252      0.99942     1.99007    0.00799     2.99748
      C   41   -0.00364      0.99944     1.99520    0.00900     3.00364
      C   42    0.08903      0.99954     1.90119    0.01024     2.91097
      C   43   -0.31810      0.99969     2.31473    0.00368     3.31810
      C   44   -0.21196      0.99967     2.20454    0.00775     3.21196
      C   45   -0.26011      0.99963     2.25194    0.00854     3.26011
      C   46    0.38247      0.99975     1.60105    0.01673     2.61753
      O   47   -0.31070      0.99981     3.29579    0.01509     4.31070
      O   48   -0.29152      0.99990     3.27981    0.01181     4.29152
      N   49   -0.22201      0.99967     2.69824    0.02410     3.72201
      N   50   -0.21735      0.99970     2.69421    0.02344     3.71735
      N   51   -0.22110      0.99969     2.69708    0.02434     3.72110
      N   52   -0.21638      0.99967     2.69365    0.02307     3.71638
     Fe   53    0.69042      8.99531     3.28792    0.02634    12.30958
      H   54    0.12019      0.00000     0.37941    0.00041     0.37981
      H   55    0.11905      0.00000     0.38023    0.00073     0.38095
      H   56    0.12602      0.00000     0.37329    0.00069     0.37398
      H   57    0.11098      0.00000     0.38759    0.00142     0.38902
      H   58    0.12228      0.00000     0.37685    0.00087     0.37772
      H   59    0.10757      0.00000     0.39157    0.00086     0.39243
      H   60    0.11614      0.00000     0.38327    0.00059     0.38386
      H   61    0.10722      0.00000     0.39216    0.00062     0.39278
      H   62    0.11817      0.00000     0.38108    0.00075     0.38183
      H   63    0.11629      0.00000     0.38296    0.00075     0.38371
      H   64    0.21299      0.00000     0.28626    0.00075     0.28701
      H   65    0.11961      0.00000     0.37985    0.00055     0.38039
      H   66    0.11918      0.00000     0.38023    0.00058     0.38082
      H   67    0.11187      0.00000     0.38756    0.00056     0.38813
      H   68    0.25034      0.00000     0.24869    0.00097     0.24966
      H   69    0.12253      0.00000     0.37684    0.00063     0.37747
      H   70    0.10639      0.00000     0.39282    0.00078     0.39361
      H   71    0.11503      0.00000     0.38424    0.00072     0.38497
      H   72    0.12270      0.00000     0.37653    0.00077     0.37730
      H   73    0.10958      0.00000     0.38987    0.00055     0.39042
      H   74    0.11766      0.00000     0.38163    0.00071     0.38234
      H   75    0.11588      0.00000     0.38344    0.00068     0.38412
      H   76    0.11377      0.00000     0.38495    0.00128     0.38623
      H   77    0.11130      0.00000     0.38765    0.00105     0.38870
      H   78    0.11149      0.00000     0.38750    0.00102     0.38851
      H   79    0.10999      0.00000     0.38948    0.00053     0.39001
      H   80    0.09968      0.00000     0.39957    0.00075     0.40032
      H   81    0.10438      0.00000     0.39502    0.00061     0.39562
      H   82    0.10844      0.00000     0.39092    0.00064     0.39156
      H   83    0.11570      0.00000     0.38357    0.00074     0.38430
      H   84    0.11148      0.00000     0.38776    0.00076     0.38852
      H   85    0.11253      0.00000     0.38615    0.00131     0.38747
      H   86    0.11180      0.00000     0.38701    0.00119     0.38820
      H   87    0.10877      0.00000     0.39018    0.00105     0.39123
      H   88    0.10381      0.00000     0.39551    0.00069     0.39619
      H   89    0.11098      0.00000     0.38848    0.00054     0.38902
      H   90    0.09828      0.00000     0.40104    0.00069     0.40172
      H   91    0.11519      0.00000     0.38403    0.00077     0.38481
      H   92    0.10515      0.00000     0.39420    0.00066     0.39485
      H   93    0.11321      0.00000     0.38604    0.00075     0.38679
      H   94    0.11243      0.00000     0.38605    0.00152     0.38757
      H   95    0.11259      0.00000     0.38673    0.00068     0.38741
      H   96    0.11187      0.00000     0.38733    0.00080     0.38813
      H   97    0.11625      0.00000     0.38301    0.00074     0.38375
      H   98    0.11741      0.00000     0.38131    0.00128     0.38259
      H   99    0.11568      0.00000     0.38359    0.00074     0.38432
      H  100    0.11652      0.00000     0.38270    0.00077     0.38348
      H  101    0.12620      0.00000     0.37322    0.00059     0.37380
      H  102    0.10291      0.00000     0.39631    0.00078     0.39709
      H  103    0.25968      0.00000     0.23932    0.00100     0.24032
 =======================================================================
   * Total *    1.00000     64.97477   139.40498    0.62025   205.00000

 Normal termination of Gaussian 16 at Fri Sep  2 10:18:58 2022.
