 Gaussian 16, Revision A.03,
 Gaussian 16:  ES64L-G16RevA.03 25-Dec-2016

 ---------------------------------------------------------------------
 # polar def2tzvp empiricaldispersion=gd3bj int=grid=ultrafine pbe1pbe
 ---------------------------------------------------------------------

 ---------
 1vb6_II_S
 ---------
 Symbolic Z-matrix:
 Charge =  0 Multiplicity = 1

                         Standard orientation:
 ---------------------------------------------------------------------
 Center     Atomic      Atomic             Coordinates (Angstroms)
 Number     Number       Type             X           Y           Z
 ---------------------------------------------------------------------
      1          6           0       -1.467900   -1.082298    5.643027
      2          6           0       -1.444200   -0.400170    4.309727
      3          7           0       -1.732140    0.938307    4.150902
      4          6           0       -1.139873   -0.869166    3.077443
      5          6           0       -1.603593    1.266652    2.878827
      6          7           0       -1.244935    0.188460    2.204594
      7          6           0        0.995317   -1.347119   -4.062986
      8          6           0        1.095469   -0.845562   -2.610399
      9         16           0       -0.330009    0.209333   -2.235839
     10          6           0       -1.591833   -0.635340   -3.188058
     11          6           0        2.536164   -0.224699    0.801977
     12          6           0       -1.216611   -3.254038    0.147714
     13          6           0       -4.149611    0.517617   -0.646054
     14          6           0       -0.429336    3.571771   -0.005712
     15          6           0        1.736693   -1.401238    0.704821
     16          6           0        2.274546   -2.747536    0.875609
     17          6           0        1.211631   -3.607762    0.682003
     18          6           0        0.054513   -2.781709    0.401190
     19          6           0        1.261316   -5.149550    0.754460
     20          6           0        3.707843   -3.086861    1.325625
     21          6           0        4.477979   -3.873470    0.275330
     22          6           0        4.671350   -3.113992   -1.017369
     23          8           0        4.251929   -3.641159   -2.049470
     24          8           0        5.228567   -1.993903   -0.987351
     25          6           0       -2.334925   -2.493309   -0.127809
     26          6           0       -3.631524   -3.050819   -0.392779
     27          6           0       -4.521851   -2.010234   -0.620417
     28          6           0       -3.681497   -0.784337   -0.487760
     29          6           0       -3.919877   -4.578115   -0.411395
     30          6           0       -5.923133   -2.157186   -0.916107
     31          6           0       -6.438210   -3.413686   -1.262267
     32          6           0       -3.377380    1.673221   -0.536703
     33          6           0       -3.948423    3.008485   -0.739392
     34          6           0       -2.884045    3.900319   -0.555416
     35          6           0       -1.711200    3.071008   -0.252694
     36          6           0       -5.432447    3.289320   -1.087753
     37          6           0       -2.850457    5.334650   -0.635439
     38          6           0       -3.981167    6.038818   -1.070829
     39          6           0        0.712967    2.815496    0.265851
     40          6           0        2.043385    3.368186    0.495423
     41          6           0        2.871333    2.302205    0.712576
     42          6           0        2.038162    1.097682    0.632574
     43          6           0        2.455282    4.852796    0.475559
     44          6           0        4.379892    2.341790    0.988140
     45          6           0        5.044207    1.971147   -0.344427
     46          6           0        6.505910    2.382764   -0.488035
     47          8           0        7.043864    2.221393   -1.615119
     48          8           0        7.102325    2.858642    0.509345
     49          7           0        0.385298   -1.438983    0.424065
     50          7           0       -2.353195   -1.079261   -0.176361
     51          7           0       -2.026664    1.696388   -0.236814
     52          7           0        0.724040    1.422683    0.351755
     53         26           0       -0.768343    0.147840    0.139413
     54          1           0       -2.082531    0.065410   -3.830758
     55          1           0       -1.138410   -1.403932   -3.778459
     56          1           0       -2.307861   -1.071765   -2.523423
     57          1           0        1.104683   -1.682575   -1.943897
     58          1           0        1.997372   -0.282824   -2.488757
     59          1           0        0.117320   -0.941454   -4.520651
     60          1           0        1.859984   -1.032760   -4.609275
     61          1           0        0.939063   -2.415626   -4.068298
     62          1           0       -0.868526   -1.873896    2.828870
     63          1           0       -1.762747    2.240175    2.464313
     64          1           0       -1.997184    1.563406    4.885070
     65          1           0       -2.080768   -1.957474    5.585070
     66          1           0       -0.472411   -1.361598    5.918514
     67          1           0       -1.867451   -0.415106    6.377951
     68          1           0        6.499285    2.048641   -2.386606
     69          1           0        4.982690    0.909692   -0.464545
     70          1           0        4.488323    2.431578   -1.134298
     71          1           0        4.637994    1.628075    1.742391
     72          1           0        4.676199    3.324784    1.289511
     73          1           0        1.580030    5.464942    0.411448
     74          1           0        2.989265    5.086820    1.372774
     75          1           0        3.082588    5.037592   -0.371340
     76          1           0       -0.312439    4.635158   -0.026750
     77          1           0       -5.892519    2.389781   -1.439979
     78          1           0       -5.944983    3.633518   -0.213834
     79          1           0       -5.484283    4.038525   -1.849924
     80          1           0       -5.188504    0.641393   -0.870285
     81          1           0       -4.449036   -4.830293   -1.306547
     82          1           0       -2.995448   -5.116023   -0.379989
     83          1           0       -4.513642   -4.839378    0.439537
     84          1           0       -1.348767   -4.315678    0.166569
     85          1           0        0.785877   -5.562764   -0.110474
     86          1           0        2.280881   -5.472295    0.789440
     87          1           0        0.751616   -5.481857    1.634618
     88          1           0        3.577758   -0.343644    1.016066
     89          1           0        3.660012   -3.665389    2.224467
     90          1           0        4.231369   -2.175857    1.527847
     91          1           0        5.439285   -4.125151    0.672127
     92          1           0        3.945517   -4.777524    0.065401
     93          1           0        3.316766   -3.601680   -2.262805
     94          1           0       -1.962125    5.865048   -0.362596
     95          1           0       -4.886226    5.512999   -1.292827
     96          1           0       -3.939429    7.102285   -1.181264
     97          1           0       -6.571337   -1.307040   -0.871573
     98          1           0       -7.115414   -3.505969   -2.085540
     99          1           0       -6.154280   -4.280768   -0.703293
 ---------------------------------------------------------------------

 SCF Done:  E(RPBE1PBE) =  -3879.39497029     A.U. after   23 cycles

 The electronic state is 1-A.
 Alpha  occ. eigenvalues -- -256.31596 -89.02381 -30.08422 -25.91218 -25.90895
 Alpha  occ. eigenvalues --  -25.90861 -19.26214 -19.25923 -19.18682 -19.16587
 Alpha  occ. eigenvalues --  -14.44989 -14.39120 -14.37658 -14.37565 -14.37493
 Alpha  occ. eigenvalues --  -14.37411 -10.35641 -10.34284 -10.27989 -10.26294
 Alpha  occ. eigenvalues --  -10.25360 -10.25007 -10.25007 -10.24804 -10.24797
 Alpha  occ. eigenvalues --  -10.24760 -10.24682 -10.24605 -10.24146 -10.23853
 Alpha  occ. eigenvalues --  -10.23593 -10.23409 -10.23366 -10.23333 -10.23297
 Alpha  occ. eigenvalues --  -10.23209 -10.23036 -10.22964 -10.22885 -10.22852
 Alpha  occ. eigenvalues --  -10.22581 -10.22448 -10.22441 -10.22364 -10.22259
 Alpha  occ. eigenvalues --  -10.22210 -10.21946 -10.21835 -10.21834 -10.21747
 Alpha  occ. eigenvalues --  -10.21739 -10.21674 -10.21660 -10.21601 -10.21583
 Alpha  occ. eigenvalues --  -10.21408 -10.21256  -8.00165  -5.93829  -5.93510
 Alpha  occ. eigenvalues --   -5.92999  -3.42945  -2.18841  -2.18260  -2.18215
 Alpha  occ. eigenvalues --   -1.17829  -1.15876  -1.06804  -1.03213  -1.01393
 Alpha  occ. eigenvalues --   -0.97036  -0.96013  -0.95624  -0.94685  -0.90962
 Alpha  occ. eigenvalues --   -0.84697  -0.83981  -0.83011  -0.82788  -0.82676
 Alpha  occ. eigenvalues --   -0.82184  -0.81779  -0.80481  -0.80266  -0.78999
 Alpha  occ. eigenvalues --   -0.77874  -0.76573  -0.76043  -0.75732  -0.74757
 Alpha  occ. eigenvalues --   -0.73624  -0.73001  -0.72465  -0.71804  -0.71571
 Alpha  occ. eigenvalues --   -0.70602  -0.69317  -0.69189  -0.68758  -0.66490
 Alpha  occ. eigenvalues --   -0.65960  -0.64968  -0.64836  -0.64545  -0.62545
 Alpha  occ. eigenvalues --   -0.61708  -0.61329  -0.59916  -0.58705  -0.57262
 Alpha  occ. eigenvalues --   -0.56824  -0.56145  -0.54646  -0.54587  -0.53981
 Alpha  occ. eigenvalues --   -0.53395  -0.52636  -0.52354  -0.51967  -0.51019
 Alpha  occ. eigenvalues --   -0.50697  -0.50097  -0.49967  -0.49678  -0.48778
 Alpha  occ. eigenvalues --   -0.48670  -0.48375  -0.48307  -0.47999  -0.47731
 Alpha  occ. eigenvalues --   -0.46487  -0.45969  -0.45701  -0.45102  -0.44809
 Alpha  occ. eigenvalues --   -0.44600  -0.44477  -0.44439  -0.44159  -0.44046
 Alpha  occ. eigenvalues --   -0.43986  -0.43770  -0.43695  -0.43654  -0.43497
 Alpha  occ. eigenvalues --   -0.43453  -0.43249  -0.43069  -0.43027  -0.42706
 Alpha  occ. eigenvalues --   -0.42472  -0.42329  -0.42106  -0.41359  -0.40927
 Alpha  occ. eigenvalues --   -0.40827  -0.40389  -0.40027  -0.39462  -0.39214
 Alpha  occ. eigenvalues --   -0.39106  -0.38778  -0.38461  -0.38455  -0.38124
 Alpha  occ. eigenvalues --   -0.37886  -0.37692  -0.37467  -0.37065  -0.36754
 Alpha  occ. eigenvalues --   -0.36495  -0.36459  -0.36214  -0.35838  -0.35380
 Alpha  occ. eigenvalues --   -0.34891  -0.34655  -0.34061  -0.33639  -0.33100
 Alpha  occ. eigenvalues --   -0.33022  -0.32593  -0.32126  -0.31790  -0.31494
 Alpha  occ. eigenvalues --   -0.31005  -0.30487  -0.30203  -0.29191  -0.28456
 Alpha  occ. eigenvalues --   -0.27398  -0.27179  -0.26624  -0.26027  -0.25096
 Alpha  occ. eigenvalues --   -0.24480  -0.24002  -0.22461  -0.21385  -0.20576
 Alpha  occ. eigenvalues --   -0.18994  -0.18875  -0.18735  -0.18338
 Alpha virt. eigenvalues --   -0.07671  -0.07314  -0.04148  -0.02274  -0.01929
 Alpha virt. eigenvalues --    0.00396   0.01270   0.01649   0.01829   0.02378
 Alpha virt. eigenvalues --    0.02576   0.03100   0.03653   0.04322   0.04399

 Mulliken charges:
               1
     1  C   -0.359745
     2  C    0.133259
     3  N   -0.216137
     4  C   -0.162145
     5  C    0.024175
     6  N   -0.027266
     7  C   -0.372095
     8  C   -0.154029
     9  S    0.020369
    10  C   -0.355635
    11  C   -0.550493
    12  C   -0.544140
    13  C   -0.482728
    14  C   -0.513214
    15  C    0.310246
    16  C   -0.117207
    17  C   -0.083077
    18  C    0.179943
    19  C   -0.394531
    20  C   -0.213691
    21  C   -0.208739
    22  C    0.311685
    23  O   -0.333803
    24  O   -0.360527
    25  C    0.368051
    26  C   -0.030444
    27  C    0.019264
    28  C    0.145893
    29  C   -0.448837
    30  C   -0.179586
    31  C   -0.334090
    32  C    0.333106
    33  C   -0.113916
    34  C    0.036062
    35  C    0.214942
    36  C   -0.386961
    37  C   -0.170824
    38  C   -0.269924
    39  C    0.364612
    40  C   -0.103958
    41  C   -0.048022
    42  C    0.233774
    43  C   -0.418506
    44  C   -0.201974
    45  C   -0.352546
    46  C    0.323135
    47  O   -0.294105
    48  O   -0.375643
    49  N   -0.013239
    50  N   -0.030149
    51  N   -0.043042
    52  N    0.041539
    53  Fe  -0.336628
    54  H    0.148477
    55  H    0.138850
    56  H    0.158180
    57  H    0.082424
    58  H    0.137519
    59  H    0.142137
    60  H    0.131375
    61  H    0.118554
    62  H    0.146269
    63  H    0.175071
    64  H    0.229261
    65  H    0.147501
    66  H    0.148013
    67  H    0.116447
    68  H    0.343001
    69  H    0.182629
    70  H    0.135148
    71  H    0.122344
    72  H    0.125580
    73  H    0.121689
    74  H    0.143927
    75  H    0.137065
    76  H    0.083572
    77  H    0.126301
    78  H    0.154760
    79  H    0.126712
    80  H    0.076207
    81  H    0.159893
    82  H    0.116214
    83  H    0.151293
    84  H    0.094258
    85  H    0.135298
    86  H    0.123964
    87  H    0.142093
    88  H    0.120691
    89  H    0.126927
    90  H    0.123225
    91  H    0.126501
    92  H    0.093313
    93  H    0.356613
    94  H    0.107767
    95  H    0.111572
    96  H    0.124215
    97  H    0.127364
    98  H    0.132941
    99  H    0.168389
 Sum of Mulliken charges =  -0.00000

 Dipole moment (field-independent basis, Debye):
    X=             -5.8394    Y=             -3.9372    Z=              1.5114  Tot=              7.2030
 Quadrupole moment (field-independent basis, Debye-Ang):
   XX=           -378.3361   YY=           -303.3306   ZZ=           -286.1605
   XY=            -23.3833   XZ=            -17.8651   YZ=              0.1832

  Exact polarizability: 854.413   8.627 821.158  74.439 -11.149 441.367
 Approx polarizability:1517.262  23.8711541.048 202.261 -22.502 696.299

 Normal termination of Gaussian 16 at Sat Aug 27 13:46:26 2022.
