 Gaussian 16, Revision A.03,
 Gaussian 16:  ES64L-G16RevA.03 25-Dec-2016

 ----------------------------------------------------------------------
 # PBE1PBE/def2TZVP empiricaldispersion=GD3BJ scf=maxcycle=999 geom=che
 ck pop=nbo
 ----------------------------------------------------------------------

 ---------
 1vb6_II_Q
 ---------
 Structure from the checkpoint file:  "1vb6_II_Q.chk"
 Charge =  0 Multiplicity = 5

                         Standard orientation:
 ---------------------------------------------------------------------
 Center     Atomic      Atomic             Coordinates (Angstroms)
 Number     Number       Type             X           Y           Z
 ---------------------------------------------------------------------
      1          6           0       -1.396554   -1.101004    5.656971
      2          6           0       -1.380639   -0.417092    4.324470
      3          7           0       -1.673206    0.920733    4.168633
      4          6           0       -1.080271   -0.883599    3.090271
      5          6           0       -1.551138    1.251094    2.896442
      6          7           0       -1.192228    0.174835    2.219261
      7          6           0        1.025374   -1.346049   -4.059946
      8          6           0        1.130337   -0.846071   -2.607155
      9         16           0       -0.296608    0.204129   -2.225059
     10          6           0       -1.560050   -0.643039   -3.172906
     11          6           0        2.583962   -0.225353    0.799760
     12          6           0       -1.162670   -3.264912    0.157802
     13          6           0       -4.110180    0.499087   -0.618361
     14          6           0       -0.396182    3.563383    0.009850
     15          6           0        1.787548   -1.404121    0.704534
     16          6           0        2.330100   -2.749044    0.871241
     17          6           0        1.268896   -3.612154    0.681118
     18          6           0        0.108143   -2.789160    0.406390
     19          6           0        1.323437   -5.153880    0.751353
     20          6           0        3.766326   -3.084715    1.314609
     21          6           0        4.534221   -3.867694    0.259969
     22          6           0        4.719753   -3.105984   -1.032566
     23          8           0        4.297420   -3.633057   -2.063527
     24          8           0        5.273792   -1.984294   -1.003501
     25          6           0       -2.284402   -2.507133   -0.111889
     26          6           0       -3.580489   -3.068127   -0.371972
     27          6           0       -4.474856   -2.029883   -0.594401
     28          6           0       -3.637550   -0.801682   -0.463788
     29          6           0       -3.864418   -4.596242   -0.391326
     30          6           0       -5.876966   -2.180590   -0.884216
     31          6           0       -6.147325   -3.518703   -1.200891
     32          6           0       -3.340891    1.656824   -0.510849
     33          6           0       -3.916739    2.990657   -0.709328
     34          6           0       -2.854207    3.885391   -0.528800
     35          6           0       -1.677623    3.059157   -0.232234
     36          6           0       -5.403078    3.267557   -1.050898
     37          6           0       -2.825192    5.319916   -0.607101
     38          6           0       -4.066418    5.788298   -1.058653
     39          6           0        0.749509    2.810135    0.275483
     40          6           0        2.079275    3.366454    0.500015
     41          6           0        2.911293    2.302642    0.712197
     42          6           0        2.081337    1.095769    0.634234
     43          6           0        2.486706    4.852297    0.480300
     44          6           0        4.420909    2.346326    0.981282
     45          6           0        5.080535    1.979362   -0.354628
     46          6           0        6.540383    2.395477   -0.504025
     47          8           0        7.073924    2.237147   -1.633635
     48          8           0        7.139707    2.871829    0.491383
     49          7           0        0.435067   -1.445494    0.429580
     50          7           0       -2.307049   -1.093084   -0.158522
     51          7           0       -1.988964    1.683592   -0.216777
     52          7           0        0.765058    1.417251    0.359527
     53         26           0       -0.724467    0.138283    0.151987
     54          1           0       -2.055589    0.057087   -3.812565
     55          1           0       -1.106924   -1.409528   -3.766263
     56          1           0       -2.271903   -1.082431   -2.505747
     57          1           0        1.144904   -1.683910   -1.941788
     58          1           0        2.031096   -0.280830   -2.488685
     59          1           0        0.144211   -0.942389   -4.513280
     60          1           0        1.886736   -1.028436   -4.609562
     61          1           0        0.972245   -2.414710   -4.066405
     62          1           0       -0.807044   -1.887203    2.839219
     63          1           0       -1.714954    2.224676    2.483887
     64          1           0       -1.936909    1.544100    4.904754
     65          1           0       -2.007086   -1.977910    5.600528
     66          1           0       -0.399062   -1.377718    5.927785
     67          1           0       -1.794883   -0.435941    6.394485
     68          1           0        6.526520    2.063782   -2.402982
     69          1           0        5.021626    0.917886   -0.475859
     70          1           0        4.519882    2.439168   -1.141487
     71          1           0        4.684377    1.632405    1.733480
     72          1           0        4.715620    3.329802    1.282646
     73          1           0        1.609385    5.461939    0.420773
     74          1           0        3.023878    5.086741    1.375500
     75          1           0        3.109791    5.040035   -0.369064
     76          1           0       -0.282511    4.627137   -0.010310
     77          1           0       -2.621736    5.725954    0.361733
     78          1           0       -2.059339    5.624451   -1.289470
     79          1           0       -3.932202    6.719133   -1.568978
     80          1           0       -4.495343    5.072797   -1.728713
     81          1           0       -4.719411    5.930584   -0.223037
     82          1           0       -5.862019    2.367119   -1.402301
     83          1           0       -5.912837    3.609115   -0.174322
     84          1           0       -5.460422    4.017587   -1.811863
     85          1           0       -5.150395    0.620085   -0.837933
     86          1           0       -6.450997   -1.893702   -0.028013
     87          1           0       -6.138603   -1.557810   -1.714030
     88          1           0       -6.088113   -4.114130   -0.313839
     89          1           0       -7.130182   -3.595213   -1.616868
     90          1           0       -5.430103   -3.868444   -1.913754
     91          1           0       -4.396703   -4.848829   -1.284507
     92          1           0       -2.938281   -5.131459   -0.364621
     93          1           0       -4.453719   -4.860353    0.461827
     94          1           0       -1.291613   -4.326961    0.175848
     95          1           0        0.845476   -5.567382   -0.112052
     96          1           0        2.344090   -5.473659    0.781501
     97          1           0        0.818535   -5.488824    1.633276
     98          1           0        3.626819   -0.341498    1.009184
     99          1           0        3.724093   -3.664539    2.212897
    100          1           0        4.288036   -2.172432    1.515749
    101          1           0        5.497973   -4.117047    0.652276
    102          1           0        4.003520   -4.773045    0.051170
    103          1           0        3.361230   -3.596065   -2.272762
 ---------------------------------------------------------------------

 SCF Done:  E(UPBE1PBE) =  -3881.82172503     A.U. after   49 cycles

 Alpha virt. eigenvalues --    1.05939   1.06853   1.06967   1.07141   1.07557
 Alpha virt. eigenvalues --    1.07696   1.07960   1.08216   1.08452   1.09032
 Alpha virt. eigenvalues --    1.09190   1.09473   1.09764   1.10455   1.10594

  Beta  occ. eigenvalues -- -256.32591 -89.00720 -30.05381 -25.89067 -25.88436
  Beta  occ. eigenvalues --  -25.88224 -19.25994 -19.25603 -19.18361 -19.16360
  Beta  occ. eigenvalues --  -14.44550 -14.37538 -14.36102 -14.35984 -14.35826
  Beta  occ. eigenvalues --  -14.35767 -10.35319 -10.34046 -10.27500 -10.25863
  Beta  occ. eigenvalues --  -10.24957 -10.24770 -10.24658 -10.24467 -10.24150
  Beta  occ. eigenvalues --  -10.23988 -10.23961 -10.23770 -10.23542 -10.23116
  Beta  occ. eigenvalues --  -10.23024 -10.22913 -10.22904 -10.22700 -10.22496
  Beta  occ. eigenvalues --  -10.22327 -10.22188 -10.22145 -10.21990 -10.21969
  Beta  occ. eigenvalues --  -10.21918 -10.21759 -10.21702 -10.21529 -10.21435
  Beta  occ. eigenvalues --  -10.21411 -10.21379 -10.21264 -10.21147 -10.21038
  Beta  occ. eigenvalues --  -10.20956 -10.20860 -10.20820 -10.20206 -10.19969
  Beta  occ. eigenvalues --  -10.18819 -10.18413  -7.98666  -5.92342  -5.92000
  Beta  occ. eigenvalues --   -5.91438  -3.36179  -2.11087  -2.10933  -2.10715
  Beta  occ. eigenvalues --   -1.17507  -1.15656  -1.06259  -1.02892  -1.01168
  Beta  occ. eigenvalues --   -0.96524  -0.95436  -0.94963  -0.93954  -0.90348
  Beta  occ. eigenvalues --   -0.85358  -0.85046  -0.83887  -0.83575  -0.82566
  Beta  occ. eigenvalues --   -0.82141  -0.81386  -0.80033  -0.79877  -0.78673
  Beta  occ. eigenvalues --   -0.77760  -0.76987  -0.76384  -0.75361  -0.74267
  Beta  occ. eigenvalues --   -0.73578  -0.72633  -0.72539  -0.72026  -0.71563
  Beta  occ. eigenvalues --   -0.70270  -0.68910  -0.68599  -0.68438  -0.66143
  Beta  occ. eigenvalues --   -0.65617  -0.64718  -0.64410  -0.64289  -0.63047
  Beta  occ. eigenvalues --   -0.62935  -0.62103  -0.59252  -0.58306  -0.56694
  Beta  occ. eigenvalues --   -0.56399  -0.56104  -0.54845  -0.54565  -0.53831
  Beta  occ. eigenvalues --   -0.53072  -0.52365  -0.52082  -0.51651  -0.50612
  Beta  occ. eigenvalues --   -0.50386  -0.49814  -0.49762  -0.49385  -0.49355
  Beta  occ. eigenvalues --   -0.49166  -0.48371  -0.48083  -0.47927  -0.47890
  Beta  occ. eigenvalues --   -0.47575  -0.47369  -0.46231  -0.45568  -0.45338
  Beta  occ. eigenvalues --   -0.44400  -0.44181  -0.44142  -0.44042  -0.43815
  Beta  occ. eigenvalues --   -0.43721  -0.43657  -0.43469  -0.43311  -0.43194
  Beta  occ. eigenvalues --   -0.43016  -0.42788  -0.42714  -0.42656  -0.42407
  Beta  occ. eigenvalues --   -0.42246  -0.41830  -0.41709  -0.41209  -0.40823
  Beta  occ. eigenvalues --   -0.40487  -0.40390  -0.40230  -0.39936  -0.39625
  Beta  occ. eigenvalues --   -0.39131  -0.38748  -0.38377  -0.38111  -0.38004
  Beta  occ. eigenvalues --   -0.37772  -0.37722  -0.37174  -0.37011  -0.36654
  Beta  occ. eigenvalues --   -0.36256  -0.36004  -0.35689  -0.35501  -0.35378
  Beta  occ. eigenvalues --   -0.35252  -0.35034  -0.34697  -0.34301  -0.33667
  Beta  occ. eigenvalues --   -0.33428  -0.32909  -0.32700  -0.32206  -0.32150
  Beta  occ. eigenvalues --   -0.31631  -0.31419  -0.31282  -0.31140  -0.29960
  Beta  occ. eigenvalues --   -0.29744  -0.28137  -0.27462  -0.27152  -0.26364
  Beta  occ. eigenvalues --   -0.25174  -0.24651  -0.23867  -0.23292  -0.23004
  Beta  occ. eigenvalues --   -0.22621  -0.18558  -0.18373  -0.14504
  Beta virt. eigenvalues --   -0.07259  -0.06034  -0.01942  -0.01057  -0.00019
  Beta virt. eigenvalues --    0.00190   0.01160   0.02079   0.02475   0.02894
  Beta virt. eigenvalues --    0.03337   0.03594   0.04242   0.04407   0.04672

 Mulliken charges and spin densities:
               1          2
     1  C   -0.360739   0.000773
     2  C    0.131754   0.005165
     3  N   -0.217181  -0.000745
     4  C   -0.160293  -0.002118
     5  C    0.022336  -0.010137
     6  N   -0.053227   0.036871
     7  C   -0.370970   0.001577
     8  C   -0.151620  -0.006742
     9  S   -0.020218   0.063699
    10  C   -0.354722  -0.001181
    11  C   -0.572563  -0.065555
    12  C   -0.550474   0.012746
    13  C   -0.536143  -0.053437
    14  C   -0.537785   0.019921
    15  C    0.325776   0.037414
    16  C   -0.124044  -0.043453
    17  C   -0.077218   0.045978
    18  C    0.195782  -0.046270
    19  C   -0.395842  -0.001939
    20  C   -0.213058   0.005514
    21  C   -0.208419  -0.001635
    22  C    0.312166  -0.000012
    23  O   -0.334518   0.000018
    24  O   -0.360985   0.000065
    25  C    0.384297  -0.042388
    26  C   -0.102661   0.040175
    27  C   -0.055421  -0.042048
    28  C    0.144849   0.031930
    29  C   -0.369172  -0.001717
    30  C   -0.157890   0.004393
    31  C   -0.310308  -0.000442
    32  C    0.377942   0.031353
    33  C   -0.174804  -0.048663
    34  C   -0.057510   0.046756
    35  C    0.176785  -0.055172
    36  C   -0.334561   0.004782
    37  C   -0.139197  -0.002384
    38  C   -0.302391   0.000349
    39  C    0.401035  -0.055335
    40  C   -0.103860   0.048578
    41  C   -0.047620  -0.047955
    42  C    0.246302   0.040094
    43  C   -0.420648  -0.001894
    44  C   -0.203134   0.004911
    45  C   -0.352158  -0.001514
    46  C    0.322974  -0.000371
    47  O   -0.294568  -0.000097
    48  O   -0.376381  -0.000096
    49  N   -0.086669   0.030128
    50  N   -0.086868   0.024759
    51  N   -0.097760   0.031105
    52  N   -0.028612   0.024394
    53  Fe  -0.081173   3.923407
    54  H    0.143567   0.000670
    55  H    0.135577   0.001069
    56  H    0.154183   0.002026
    57  H    0.079827   0.003221
    58  H    0.135738  -0.000109
    59  H    0.141665  -0.000110
    60  H    0.128947  -0.000273
    61  H    0.115162   0.001229
    62  H    0.145636   0.001219
    63  H    0.171185   0.001649
    64  H    0.225557   0.002346
    65  H    0.146173  -0.000021
    66  H    0.147537   0.000065
    67  H    0.115260   0.000078
    68  H    0.342989   0.000016
    69  H    0.183213   0.000143
    70  H    0.134541  -0.000029
    71  H    0.121808  -0.001326
    72  H    0.124299  -0.000125
    73  H    0.123378   0.000123
    74  H    0.143418   0.001192
    75  H    0.136527   0.001516
    76  H    0.112432  -0.001171
    77  H    0.100040   0.001826
    78  H    0.100950   0.001670
    79  H    0.114153   0.000124
    80  H    0.082076   0.000126
    81  H    0.103800  -0.000158
    82  H    0.123220  -0.000474
    83  H    0.130754  -0.001900
    84  H    0.131255  -0.000926
    85  H    0.099182   0.002228
    86  H    0.095608  -0.002948
    87  H    0.092172  -0.001969
    88  H    0.111686   0.000097
    89  H    0.114176   0.000254
    90  H    0.101454   0.000009
    91  H    0.136003   0.000954
    92  H    0.113797   0.000112
    93  H    0.143897   0.001248
    94  H    0.095360  -0.000766
    95  H    0.135654   0.000891
    96  H    0.123499   0.000464
    97  H    0.141854   0.001376
    98  H    0.119822   0.002587
    99  H    0.125233  -0.001234
   100  H    0.122411  -0.000370
   101  H    0.125115  -0.000463
   102  H    0.092510   0.000161
   103  H    0.357083   0.000126
 Sum of Mulliken charges =  -0.00000   4.00000

 Dipole moment (field-independent basis, Debye):
    X=             -7.6044    Y=             -3.0839    Z=              1.4001  Tot=              8.3245
 Quadrupole moment (field-independent basis, Debye-Ang):
   XX=           -375.6292   YY=           -302.7133   ZZ=           -289.9265
   XY=            -23.5833   XZ=            -17.8817   YZ=             -0.4823

 Summary of Natural Population Analysis:

                                       Natural Population
                Natural  -----------------------------------------------
    Atom  No    Charge         Core      Valence    Rydberg      Total
 -----------------------------------------------------------------------
      C    1   -0.31880      0.99970     2.31594    0.00316     3.31880
      C    2    0.05155      0.99954     1.93975    0.00916     2.94845
      N    3   -0.23932      0.99968     2.72958    0.01007     3.73932
      C    4   -0.03591      0.99942     2.02719    0.00930     3.03591
      C    5    0.08660      0.99965     1.90181    0.01194     2.91340
      N    6   -0.17101      0.99973     2.64291    0.02837     3.67101
      C    7   -0.31142      0.99972     2.30751    0.00420     3.31142
      C    8   -0.26754      0.99967     2.25824    0.00962     3.26754
      S    9    0.28549      4.99930     2.69384    0.02137     7.71451
      C   10   -0.38197      0.99963     2.37363    0.00870     3.38197
      C   11   -0.14709      0.99952     2.13994    0.00763     3.14709
      C   12   -0.10811      0.99947     2.10040    0.00824     3.10811
      C   13   -0.14677      0.99948     2.13899    0.00830     3.14677
      C   14   -0.10670      0.99949     2.09952    0.00768     3.10670
      C   15    0.09730      0.99953     1.89239    0.01078     2.90270
      C   16   -0.05378      0.99944     2.04440    0.00994     3.05378
      C   17    0.00412      0.99944     1.98784    0.00861     2.99588
      C   18    0.03207      0.99950     1.95800    0.01044     2.96793
      C   19   -0.32035      0.99969     2.31696    0.00369     3.32035
      C   20   -0.20530      0.99966     2.19860    0.00704     3.20530
      C   21   -0.25570      0.99963     2.24776    0.00831     3.25570
      C   22    0.39397      0.99974     1.58823    0.01806     2.60603
      O   23   -0.34198      0.99977     3.32686    0.01535     4.34198
      O   24   -0.29248      0.99989     3.28100    0.01159     4.29248
      C   25    0.03855      0.99948     1.95143    0.01055     2.96145
      C   26    0.00623      0.99945     1.98603    0.00829     2.99377
      C   27   -0.04074      0.99950     2.03235    0.00889     3.04074
      C   28    0.10303      0.99954     1.88699    0.01045     2.89697
      C   29   -0.31629      0.99969     2.31256    0.00405     3.31629
      C   30   -0.21986      0.99961     2.21255    0.00771     3.21986
      C   31   -0.28692      0.99968     2.27981    0.00743     3.28692
      C   32    0.09755      0.99951     1.89197    0.01097     2.90245
      C   33   -0.04415      0.99948     2.03661    0.00805     3.04415
      C   34    0.01077      0.99952     1.98122    0.00849     2.98923
      C   35    0.04072      0.99954     1.94981    0.00994     2.95928
      C   36   -0.31047      0.99967     2.30686    0.00393     3.31047
      C   37   -0.22524      0.99961     2.21785    0.00777     3.22524
      C   38   -0.29101      0.99968     2.28427    0.00705     3.29101
      C   39    0.04285      0.99952     1.94727    0.01036     2.95715
      C   40    0.00955      0.99941     1.98272    0.00831     2.99045
      C   41   -0.04201      0.99944     2.03350    0.00907     3.04201
      C   42    0.10016      0.99954     1.88965    0.01066     2.89984
      C   43   -0.31833      0.99970     2.31494    0.00370     3.31833
      C   44   -0.20825      0.99968     2.20081    0.00776     3.20825
      C   45   -0.26270      0.99963     2.25437    0.00870     3.26270
      C   46    0.38364      0.99975     1.59964    0.01697     2.61636
      O   47   -0.31532      0.99981     3.30063    0.01488     4.31532
      O   48   -0.29842      0.99989     3.28674    0.01178     4.29842
      N   49   -0.20275      0.99971     2.68338    0.01965     3.70275
      N   50   -0.19627      0.99974     2.67658    0.01995     3.69627
      N   51   -0.19623      0.99974     2.67597    0.02053     3.69623
      N   52   -0.19805      0.99971     2.67832    0.02002     3.69805
     Fe   53    2.04705      8.99497     1.92440    0.03358    10.95295
      H   54    0.11318      0.00000     0.38638    0.00044     0.38682
      H   55    0.11222      0.00000     0.38701    0.00078     0.38778
      H   56    0.12310      0.00000     0.37614    0.00076     0.37690
      H   57    0.10770      0.00000     0.39073    0.00157     0.39230
      H   58    0.11720      0.00000     0.38194    0.00086     0.38280
      H   59    0.10742      0.00000     0.39169    0.00089     0.39258
      H   60    0.10838      0.00000     0.39097    0.00065     0.39162
      H   61    0.10141      0.00000     0.39790    0.00069     0.39859
      H   62    0.11588      0.00000     0.38339    0.00073     0.38412
      H   63    0.11409      0.00000     0.38511    0.00079     0.38591
      H   64    0.20608      0.00000     0.29313    0.00079     0.29392
      H   65    0.11512      0.00000     0.38428    0.00060     0.38488
      H   66    0.11437      0.00000     0.38498    0.00065     0.38563
      H   67    0.10663      0.00000     0.39278    0.00060     0.39337
      H   68    0.25030      0.00000     0.24872    0.00098     0.24970
      H   69    0.12441      0.00000     0.37494    0.00064     0.37559
      H   70    0.10774      0.00000     0.39147    0.00078     0.39226
      H   71    0.11142      0.00000     0.38781    0.00077     0.38858
      H   72    0.11743      0.00000     0.38178    0.00078     0.38257
      H   73    0.10771      0.00000     0.39172    0.00058     0.39229
      H   74    0.11219      0.00000     0.38704    0.00078     0.38781
      H   75    0.11069      0.00000     0.38857    0.00074     0.38931
      H   76    0.10635      0.00000     0.39235    0.00130     0.39365
      H   77    0.10704      0.00000     0.39183    0.00113     0.39296
      H   78    0.10810      0.00000     0.39082    0.00109     0.39190
      H   79    0.10370      0.00000     0.39571    0.00059     0.39630
      H   80    0.10106      0.00000     0.39816    0.00079     0.39894
      H   81    0.10115      0.00000     0.39820    0.00065     0.39885
      H   82    0.10677      0.00000     0.39253    0.00070     0.39323
      H   83    0.10875      0.00000     0.39039    0.00086     0.39125
      H   84    0.10511      0.00000     0.39404    0.00085     0.39489
      H   85    0.10627      0.00000     0.39241    0.00132     0.39373
      H   86    0.10432      0.00000     0.39433    0.00135     0.39568
      H   87    0.10360      0.00000     0.39521    0.00119     0.39640
      H   88    0.10221      0.00000     0.39706    0.00073     0.39779
      H   89    0.10425      0.00000     0.39515    0.00060     0.39575
      H   90    0.09880      0.00000     0.40046    0.00073     0.40120
      H   91    0.11000      0.00000     0.38916    0.00083     0.39000
      H   92    0.10387      0.00000     0.39544    0.00069     0.39613
      H   93    0.10785      0.00000     0.39133    0.00082     0.39215
      H   94    0.10534      0.00000     0.39312    0.00154     0.39466
      H   95    0.10971      0.00000     0.38956    0.00074     0.39029
      H   96    0.10680      0.00000     0.39237    0.00084     0.39320
      H   97    0.11201      0.00000     0.38717    0.00081     0.38799
      H   98    0.11117      0.00000     0.38755    0.00128     0.38883
      H   99    0.10832      0.00000     0.39070    0.00098     0.39168
      H  100    0.11529      0.00000     0.38391    0.00080     0.38471
      H  101    0.11994      0.00000     0.37940    0.00066     0.38006
      H  102    0.10172      0.00000     0.39745    0.00082     0.39828
      H  103    0.26188      0.00000     0.23710    0.00102     0.23812
 =======================================================================
   * Total *    2.00000     64.97447   138.40192    0.62361   204.00000

 Normal termination of Gaussian 16 at Thu Sep  1 22:19:50 2022.
