 Gaussian 16, Revision A.03,
 Gaussian 16:  ES64L-G16RevA.03 25-Dec-2016

 ----------------------------------------------------------------------
 # PBE1PBE/def2TZVP empiricaldispersion=GD3BJ scf=maxcycle=999 geom=che
 ck pop=nbo
 ----------------------------------------------------------------------

 ----------
 2gsm_III_H
 ----------
 Structure from the checkpoint file:  "2gsm_III_H.chk"
 Charge =  1 Multiplicity = 6

                         Standard orientation:
 ---------------------------------------------------------------------
 Center     Atomic      Atomic             Coordinates (Angstroms)
 Number     Number       Type             X           Y           Z
 ---------------------------------------------------------------------
      1          6           0       -0.514159   -0.889651    5.116774
      2          6           0        0.318559   -0.748219    3.867598
      3          7           0        1.671159   -1.016014    3.844635
      4          6           0       -0.001279   -0.335145    2.612737
      5          6           0        2.150671   -0.772999    2.632786
      6          7           0        1.154316   -0.366543    1.861458
      7         26           0        0.979555    0.058860   -0.196649
      8          6           0       -2.473216   -0.111193   -0.172800
      9          6           0        1.143814   -3.330182   -0.907639
     10          6           0        4.410096    0.271037   -0.600190
     11          6           0        0.810378    3.474352    0.060651
     12          7           0       -0.422719   -1.471668   -0.480800
     13          6           0       -1.795613   -1.283534   -0.487776
     14          6           0       -2.391008   -2.549427   -0.853577
     15          6           0       -1.400670   -3.439615   -1.067344
     16          6           0       -0.132640   -2.780246   -0.824814
     17          6           0       -1.604658   -4.879911   -1.493963
     18          6           0       -3.896169   -2.832725   -0.994771
     19          6           0       -4.473204   -3.280400    0.347611
     20          6           0       -5.984783   -3.309008    0.264018
     21          8           0       -6.582033   -4.344531    0.657985
     22          8           0       -6.609977   -2.307316   -0.192940
     23          7           0        2.534736   -1.308801   -0.714764
     24          6           0        2.368146   -2.670165   -0.855479
     25          6           0        3.704711   -3.248725   -0.937124
     26          6           0        4.604866   -2.254498   -0.860675
     27          6           0        3.876619   -0.994977   -0.712119
     28          6           0        4.036494   -4.746506   -1.086700
     29          7           0        2.359313    1.594029   -0.253723
     30          6           0        3.722165    1.462070   -0.439530
     31          6           0        4.306353    2.785034   -0.426143
     32          6           0        3.317987    3.686557   -0.231884
     33          6           0        2.064387    2.950354   -0.117421
     34          6           0        5.801746    3.079302   -0.624639
     35          6           0        3.461427    5.212749   -0.161858
     36          6           0        4.744309    5.558613   -0.428615
     37          7           0       -0.579091    1.441909   -0.051675
     38          6           0       -0.412964    2.806637   -0.003164
     39          6           0       -1.744359    3.399204   -0.002765
     40          6           0       -2.644139    2.408418   -0.063949
     41          6           0       -1.921983    1.148502   -0.098274
     42          6           0       -2.036564    4.915541    0.044363
     43          6           0       -4.170080    2.501943   -0.055051
     44          6           0       -4.839178    3.004634   -1.331631
     45          6           0       -6.293702    3.178477   -0.918484
     46          8           0       -7.078292    2.197866   -0.977129
     47          8           0       -6.656199    4.302628   -0.513191
     48          6           0        6.137457   -2.403427   -1.017610
     49          6           0        6.596043   -3.716308   -0.356064
     50          1           0       -1.311836   -1.579903    4.937429
     51          1           0        0.099005   -1.252742    5.914956
     52          1           0       -0.920527    0.063333    5.384329
     53          1           0        2.207762   -1.343192    4.622460
     54          1           0        3.170487   -0.886209    2.329375
     55          1           0       -0.971296   -0.039963    2.270924
     56          1           0       -3.520312   -0.195545    0.030605
     57          1           0        0.764118    4.521770    0.274366
     58          1           0        5.476945    0.341527   -0.642215
     59          1           0        1.189215   -4.392627   -1.026162
     60          1           0       -2.223470   -4.909255   -2.366380
     61          1           0       -0.656559   -5.324393   -1.714062
     62          1           0       -2.077927   -5.422693   -0.702569
     63          1           0       -3.093170    5.073477    0.103858
     64          1           0       -1.563051    5.343495    0.903166
     65          1           0       -1.655845    5.379832   -0.841293
     66          1           0       -4.557896    1.527637    0.157614
     67          1           0       -4.454790    3.154092    0.744037
     68          1           0       -4.753126    2.279298   -2.113541
     69          1           0       -4.418551    3.940650   -1.634696
     70          1           0       -7.877850    2.253793   -1.505502
     71          1           0       -7.448550   -2.429733   -0.643948
     72          1           0       -4.110560   -4.259176    0.582957
     73          1           0       -4.171302   -2.595032    1.111827
     74          1           0       -4.045124   -3.605131   -1.720100
     75          1           0       -4.395835   -1.942946   -1.316529
     76          1           0        3.561163   -5.131156   -1.964769
     77          1           0        5.095922   -4.870421   -1.171297
     78          1           0        3.682718   -5.277685   -0.227869
     79          1           0        6.389490   -2.420941   -2.057356
     80          1           0        6.626292   -1.576671   -0.545999
     81          1           0        6.240079   -4.547380   -0.928348
     82          1           0        7.665036   -3.741712   -0.317232
     83          1           0        6.201641   -3.772028    0.637034
     84          1           0        5.945650    3.580680   -1.558882
     85          1           0        6.151499    3.702156    0.171995
     86          1           0        6.349161    2.159934   -0.625219
     87          1           0        4.777624    6.140457   -1.325971
     88          1           0        5.134953    6.134213    0.384393
     89          1           0        5.333250    4.674247   -0.554885
     90          1           0        2.812783    5.665388   -0.882467
     91          1           0        3.197190    5.551227    0.818199
 ---------------------------------------------------------------------

 SCF Done:  E(UPBE1PBE) =  -3364.53293835     A.U. after   28 cycles

 Alpha virt. eigenvalues --    0.55944   0.56152   0.56534   0.56586   0.57024
 Alpha virt. eigenvalues --    0.57057   0.57405   0.57516   0.58138   0.58346
 Alpha virt. eigenvalues --    0.58644   0.58942   0.59138   0.59191   0.59499

  Beta  occ. eigenvalues -- -256.58598 -30.31528 -26.14920 -26.14674 -26.14634
  Beta  occ. eigenvalues --  -19.33876 -19.32910 -19.25037 -19.24676 -14.56585
  Beta  occ. eigenvalues --  -14.51987 -14.49109 -14.49064 -14.48911 -14.48773
  Beta  occ. eigenvalues --  -10.42653 -10.42523 -10.40665 -10.37762 -10.36502
  Beta  occ. eigenvalues --  -10.36498 -10.36424 -10.36421 -10.36404 -10.36338
  Beta  occ. eigenvalues --  -10.36274 -10.36201 -10.35364 -10.33417 -10.33413
  Beta  occ. eigenvalues --  -10.33134 -10.33029 -10.33020 -10.32904 -10.32768
  Beta  occ. eigenvalues --  -10.32700 -10.32694 -10.32611 -10.32521 -10.32511
  Beta  occ. eigenvalues --  -10.32488 -10.31811 -10.31792 -10.31512 -10.31379
  Beta  occ. eigenvalues --  -10.31037 -10.30814 -10.30215 -10.30141 -10.29492
  Beta  occ. eigenvalues --  -10.29016 -10.28566 -10.24821  -3.60231  -2.34980
  Beta  occ. eigenvalues --   -2.34269  -2.34207  -1.23709  -1.23624  -1.18401
  Beta  occ. eigenvalues --   -1.09647  -1.08969  -1.08945  -1.08133  -1.07813
  Beta  occ. eigenvalues --   -1.07017  -1.03058  -0.94747  -0.94612  -0.93303
  Beta  occ. eigenvalues --   -0.93087  -0.92597  -0.92337  -0.92121  -0.91490
  Beta  occ. eigenvalues --   -0.88867  -0.88391  -0.87772  -0.86787  -0.86069
  Beta  occ. eigenvalues --   -0.84346  -0.83531  -0.82679  -0.81923  -0.81869
  Beta  occ. eigenvalues --   -0.79835  -0.78275  -0.77736  -0.76770  -0.76688
  Beta  occ. eigenvalues --   -0.76655  -0.73966  -0.73847  -0.73674  -0.73152
  Beta  occ. eigenvalues --   -0.71226  -0.70340  -0.69396  -0.68234  -0.66577
  Beta  occ. eigenvalues --   -0.65943  -0.65550  -0.64456  -0.63443  -0.63221
  Beta  occ. eigenvalues --   -0.62578  -0.60646  -0.60481  -0.59519  -0.59416
  Beta  occ. eigenvalues --   -0.59316  -0.59187  -0.59031  -0.58138  -0.58013
  Beta  occ. eigenvalues --   -0.57725  -0.57685  -0.56949  -0.56523  -0.56229
  Beta  occ. eigenvalues --   -0.55678  -0.55306  -0.55053  -0.54608  -0.54394
  Beta  occ. eigenvalues --   -0.54311  -0.54176  -0.53788  -0.53438  -0.53385
  Beta  occ. eigenvalues --   -0.53293  -0.52698  -0.52640  -0.52488  -0.52363
  Beta  occ. eigenvalues --   -0.51953  -0.51631  -0.51365  -0.51050  -0.50759
  Beta  occ. eigenvalues --   -0.50722  -0.50259  -0.49969  -0.49534  -0.49360
  Beta  occ. eigenvalues --   -0.49121  -0.48551  -0.48310  -0.48007  -0.47708
  Beta  occ. eigenvalues --   -0.47635  -0.47021  -0.46779  -0.46654  -0.46417
  Beta  occ. eigenvalues --   -0.45983  -0.45717  -0.45591  -0.44770  -0.44412
  Beta  occ. eigenvalues --   -0.43818  -0.43632  -0.43504  -0.42649  -0.42596
  Beta  occ. eigenvalues --   -0.41990  -0.41727  -0.40804  -0.40217  -0.39664
  Beta  occ. eigenvalues --   -0.39367  -0.38956  -0.38927  -0.36165  -0.35628
  Beta  occ. eigenvalues --   -0.35249  -0.35090  -0.34622  -0.34284  -0.33686
  Beta  occ. eigenvalues --   -0.31140  -0.29947
  Beta virt. eigenvalues --   -0.22220  -0.22087  -0.20684  -0.19588  -0.17721
  Beta virt. eigenvalues --   -0.17500  -0.14844  -0.11471  -0.09406  -0.08276
  Beta virt. eigenvalues --   -0.07283  -0.06948  -0.06746  -0.06093  -0.05627

 Mulliken charges and spin densities:
               1          2
     1  C   -0.342275   0.001139
     2  C    0.095715   0.004973
     3  N   -0.200901   0.005288
     4  C   -0.140157   0.003059
     5  C    0.040652   0.006629
     6  N   -0.061803   0.084060
     7  Fe   0.251978   4.383349
     8  C   -0.529375  -0.004702
     9  C   -0.530358  -0.005566
    10  C   -0.530003  -0.011368
    11  C   -0.470699  -0.008363
    12  N   -0.134084   0.069447
    13  C    0.264586   0.009836
    14  C    0.048318   0.018924
    15  C   -0.095575   0.019937
    16  C    0.366749   0.008510
    17  C   -0.374716   0.000555
    18  C   -0.320964  -0.000554
    19  C   -0.162673   0.000853
    20  C    0.269650   0.000096
    21  O   -0.358453   0.000288
    22  O   -0.350689  -0.000013
    23  N   -0.175871   0.076351
    24  C    0.253305   0.008157
    25  C   -0.082223   0.016894
    26  C   -0.089202   0.016163
    27  C    0.268150   0.014322
    28  C   -0.326227   0.000011
    29  N   -0.117564   0.074609
    30  C    0.353143   0.011452
    31  C   -0.095904   0.023084
    32  C   -0.166072   0.017639
    33  C    0.270472   0.013017
    34  C   -0.338724   0.000050
    35  C   -0.023770  -0.000303
    36  C   -0.410607   0.000255
    37  N   -0.161041   0.070011
    38  C    0.325650   0.011922
    39  C   -0.083834   0.015727
    40  C    0.109066   0.020352
    41  C    0.293906   0.010779
    42  C   -0.399973   0.000247
    43  C   -0.490764  -0.000715
    44  C   -0.118075   0.001027
    45  C    0.267158   0.000090
    46  O   -0.351454   0.000046
    47  O   -0.341207   0.000172
    48  C   -0.190730   0.000122
    49  C   -0.331274   0.000544
    50  H    0.160346   0.000068
    51  H    0.131781   0.000210
    52  H    0.162434   0.000081
    53  H    0.251798   0.001476
    54  H    0.183954   0.000351
    55  H    0.171557   0.000870
    56  H    0.157575  -0.000518
    57  H    0.159342  -0.000221
    58  H    0.105826  -0.000439
    59  H    0.144428  -0.000425
    60  H    0.152704   0.000834
    61  H    0.130800  -0.000009
    62  H    0.151282   0.000762
    63  H    0.163689   0.000341
    64  H    0.144633   0.000449
    65  H    0.157440   0.000502
    66  H    0.128811   0.000093
    67  H    0.165146   0.000656
    68  H    0.114044   0.000028
    69  H    0.140751  -0.000057
    70  H    0.364023  -0.000004
    71  H    0.359377   0.000020
    72  H    0.137862  -0.000026
    73  H    0.127226  -0.000003
    74  H    0.138842   0.000496
    75  H    0.146823   0.000238
    76  H    0.142780   0.000483
    77  H    0.116666   0.000357
    78  H    0.142162   0.000558
    79  H    0.135012   0.000687
    80  H    0.110930   0.000165
    81  H    0.110931  -0.000072
    82  H    0.139499   0.000161
    83  H    0.124258   0.000014
    84  H    0.167472   0.000947
    85  H    0.160936   0.000683
    86  H    0.137019   0.000016
    87  H    0.122904   0.000052
    88  H    0.124834   0.000085
    89  H    0.104343   0.000171
    90  H    0.117546   0.000706
    91  H    0.108963   0.000818
 Sum of Mulliken charges =   1.00000   5.00000

 Dipole moment (field-independent basis, Debye):
    X=              6.9956    Y=             -1.4677    Z=              2.7290  Tot=              7.6511
 Quadrupole moment (field-independent basis, Debye-Ang):
   XX=           -208.6604   YY=           -260.3459   ZZ=           -245.7671
   XY=             -4.9886   XZ=             32.7466   YZ=             -0.4785

 Summary of Natural Population Analysis:

                                       Natural Population
                Natural  -----------------------------------------------
    Atom  No    Charge         Core      Valence    Rydberg      Total
 -----------------------------------------------------------------------
      C    1   -0.32078      0.99969     2.31791    0.00317     3.32078
      C    2    0.06718      0.99955     1.92424    0.00902     2.93282
      N    3   -0.22990      0.99968     2.72039    0.00983     3.72990
      C    4   -0.03944      0.99945     2.03109    0.00890     3.03944
      C    5    0.10572      0.99967     1.88503    0.00959     2.89428
      N    6   -0.16784      0.99970     2.64875    0.01940     3.66784
     Fe    7    2.68253      8.99588     1.30338    0.01821    10.31747
      C    8   -0.11597      0.99948     2.10840    0.00810     3.11597
      C    9   -0.10507      0.99950     2.09807    0.00750     3.10507
      C   10   -0.11457      0.99948     2.10742    0.00767     3.11457
      C   11   -0.11074      0.99948     2.10366    0.00760     3.11074
      N   12   -0.20099      0.99970     2.68196    0.01932     3.70099
      C   13    0.08066      0.99952     1.91012    0.00969     2.91934
      C   14    0.00312      0.99940     1.98834    0.00914     2.99688
      C   15    0.00561      0.99941     1.98676    0.00822     2.99439
      C   16    0.08199      0.99953     1.90845    0.01003     2.91801
      C   17   -0.31994      0.99970     2.31419    0.00605     3.31994
      C   18   -0.21396      0.99967     2.20763    0.00666     3.21396
      C   19   -0.24401      0.99963     2.23576    0.00863     3.24401
      C   20    0.37739      0.99977     1.60487    0.01797     2.62261
      O   21   -0.29351      0.99990     3.28173    0.01189     4.29351
      O   22   -0.33215      0.99982     3.31920    0.01313     4.33215
      N   23   -0.19701      0.99969     2.67911    0.01822     3.69701
      C   24    0.08070      0.99954     1.90978    0.00998     2.91930
      C   25    0.00341      0.99939     1.98910    0.00810     2.99659
      C   26   -0.00032      0.99939     1.99176    0.00917     3.00032
      C   27    0.08125      0.99953     1.90913    0.01009     2.91875
      C   28   -0.31297      0.99966     2.30971    0.00361     3.31297
      N   29   -0.19805      0.99970     2.68016    0.01819     3.69805
      C   30    0.08582      0.99952     1.90446    0.01020     2.91418
      C   31   -0.00025      0.99940     1.99261    0.00824     3.00025
      C   32    0.01541      0.99942     1.97642    0.00875     2.98459
      C   33    0.08633      0.99952     1.90478    0.00937     2.91367
      C   34   -0.32875      0.99969     2.32431    0.00475     3.32875
      C   35   -0.21585      0.99956     2.20823    0.00806     3.21585
      C   36   -0.31304      0.99961     2.30494    0.00848     3.31304
      N   37   -0.20523      0.99968     2.68738    0.01817     3.70523
      C   38    0.08832      0.99955     1.90237    0.00976     2.91168
      C   39    0.00749      0.99938     1.98520    0.00794     2.99251
      C   40    0.00147      0.99938     1.98993    0.00921     2.99853
      C   41    0.07979      0.99952     1.91059    0.01009     2.92021
      C   42   -0.32099      0.99970     2.31772    0.00357     3.32099
      C   43   -0.21055      0.99965     2.20472    0.00617     3.21055
      C   44   -0.24453      0.99963     2.23643    0.00847     3.24453
      C   45    0.38302      0.99977     1.59853    0.01868     2.61698
      O   46   -0.34226      0.99980     3.32842    0.01404     4.34226
      O   47   -0.28611      0.99989     3.27414    0.01207     4.28611
      C   48   -0.21149      0.99969     2.20555    0.00624     3.21149
      C   49   -0.28494      0.99969     2.28216    0.00310     3.28494
      H   50    0.12070      0.00000     0.37876    0.00054     0.37930
      H   51    0.11265      0.00000     0.38679    0.00056     0.38735
      H   52    0.12105      0.00000     0.37840    0.00055     0.37895
      H   53    0.21503      0.00000     0.28419    0.00077     0.28497
      H   54    0.11587      0.00000     0.38326    0.00086     0.38413
      H   55    0.12144      0.00000     0.37779    0.00077     0.37856
      H   56    0.11617      0.00000     0.38268    0.00115     0.38383
      H   57    0.11850      0.00000     0.38049    0.00101     0.38150
      H   58    0.11444      0.00000     0.38374    0.00181     0.38556
      H   59    0.11575      0.00000     0.38306    0.00119     0.38425
      H   60    0.11675      0.00000     0.38260    0.00066     0.38325
      H   61    0.11151      0.00000     0.38805    0.00043     0.38849
      H   62    0.11590      0.00000     0.38340    0.00070     0.38410
      H   63    0.11706      0.00000     0.38223    0.00071     0.38294
      H   64    0.11422      0.00000     0.38514    0.00065     0.38578
      H   65    0.11588      0.00000     0.38346    0.00066     0.38412
      H   66    0.10744      0.00000     0.39166    0.00089     0.39256
      H   67    0.11790      0.00000     0.38102    0.00109     0.38210
      H   68    0.10975      0.00000     0.38951    0.00074     0.39025
      H   69    0.11971      0.00000     0.37965    0.00064     0.38029
      H   70    0.26230      0.00000     0.23655    0.00115     0.23770
      H   71    0.26004      0.00000     0.23861    0.00135     0.23996
      H   72    0.12167      0.00000     0.37760    0.00073     0.37833
      H   73    0.11364      0.00000     0.38571    0.00065     0.38636
      H   74    0.11408      0.00000     0.38518    0.00074     0.38592
      H   75    0.11437      0.00000     0.38479    0.00084     0.38563
      H   76    0.11349      0.00000     0.38581    0.00069     0.38651
      H   77    0.10482      0.00000     0.39440    0.00078     0.39518
      H   78    0.11285      0.00000     0.38646    0.00068     0.38715
      H   79    0.11405      0.00000     0.38515    0.00080     0.38595
      H   80    0.10704      0.00000     0.39233    0.00063     0.39296
      H   81    0.09259      0.00000     0.40671    0.00070     0.40741
      H   82    0.10976      0.00000     0.38966    0.00058     0.39024
      H   83    0.10319      0.00000     0.39617    0.00064     0.39681
      H   84    0.12085      0.00000     0.37841    0.00073     0.37915
      H   85    0.11989      0.00000     0.37927    0.00084     0.38011
      H   86    0.11025      0.00000     0.38911    0.00065     0.38975
      H   87    0.10726      0.00000     0.39219    0.00055     0.39274
      H   88    0.10649      0.00000     0.39297    0.00054     0.39351
      H   89    0.11294      0.00000     0.38604    0.00102     0.38706
      H   90    0.11266      0.00000     0.38660    0.00074     0.38734
      H   91    0.11207      0.00000     0.38717    0.00076     0.38793
 =======================================================================
   * Total *    3.00000     56.97656   124.49780    0.52564   182.00000

 Normal termination of Gaussian 16 at Thu Sep  8 19:37:13 2022.
