 Gaussian 16, Revision A.03,
 Gaussian 16:  ES64L-G16RevA.03 25-Dec-2016

 ---------------------------------------------------------------------
 # polar def2tzvp empiricaldispersion=gd3bj int=grid=ultrafine pbe1pbe
 ---------------------------------------------------------------------

 ---------
 2gsm_II_S
 ---------
 Symbolic Z-matrix:
 Charge =  0 Multiplicity = 1

                         Standard orientation:
 ---------------------------------------------------------------------
 Center     Atomic      Atomic             Coordinates (Angstroms)
 Number     Number       Type             X           Y           Z
 ---------------------------------------------------------------------
      1          6           0       -0.514159   -0.889651    5.116774
      2          6           0        0.318559   -0.748219    3.867598
      3          7           0        1.671159   -1.016014    3.844635
      4          6           0       -0.001279   -0.335145    2.612737
      5          6           0        2.150671   -0.772999    2.632786
      6          7           0        1.154316   -0.366543    1.861458
      7         26           0        0.979555    0.058860   -0.196649
      8          6           0       -2.473216   -0.111193   -0.172800
      9          6           0        1.143814   -3.330182   -0.907639
     10          6           0        4.410096    0.271037   -0.600190
     11          6           0        0.810378    3.474352    0.060651
     12          7           0       -0.422719   -1.471668   -0.480800
     13          6           0       -1.795613   -1.283534   -0.487776
     14          6           0       -2.391008   -2.549427   -0.853577
     15          6           0       -1.400670   -3.439615   -1.067344
     16          6           0       -0.132640   -2.780246   -0.824814
     17          6           0       -1.604658   -4.879911   -1.493963
     18          6           0       -3.896169   -2.832725   -0.994771
     19          6           0       -4.473204   -3.280400    0.347611
     20          6           0       -5.984783   -3.309008    0.264018
     21          8           0       -6.582033   -4.344531    0.657985
     22          8           0       -6.609977   -2.307316   -0.192940
     23          7           0        2.534736   -1.308801   -0.714764
     24          6           0        2.368146   -2.670165   -0.855479
     25          6           0        3.704711   -3.248725   -0.937124
     26          6           0        4.604866   -2.254498   -0.860675
     27          6           0        3.876619   -0.994977   -0.712119
     28          6           0        4.036494   -4.746506   -1.086700
     29          7           0        2.359313    1.594029   -0.253723
     30          6           0        3.722165    1.462070   -0.439530
     31          6           0        4.306353    2.785034   -0.426143
     32          6           0        3.317987    3.686557   -0.231884
     33          6           0        2.064387    2.950354   -0.117421
     34          6           0        5.801746    3.079302   -0.624639
     35          6           0        3.461427    5.212749   -0.161858
     36          6           0        4.744309    5.558613   -0.428615
     37          7           0       -0.579091    1.441909   -0.051675
     38          6           0       -0.412964    2.806637   -0.003164
     39          6           0       -1.744359    3.399204   -0.002765
     40          6           0       -2.644139    2.408418   -0.063949
     41          6           0       -1.921983    1.148502   -0.098274
     42          6           0       -2.036564    4.915541    0.044363
     43          6           0       -4.170080    2.501943   -0.055051
     44          6           0       -4.839178    3.004634   -1.331631
     45          6           0       -6.293702    3.178477   -0.918484
     46          8           0       -7.078292    2.197866   -0.977129
     47          8           0       -6.656199    4.302628   -0.513191
     48          6           0        6.137457   -2.403427   -1.017610
     49          6           0        6.596043   -3.716308   -0.356064
     50          1           0       -1.311836   -1.579903    4.937429
     51          1           0        0.099005   -1.252742    5.914956
     52          1           0       -0.920527    0.063333    5.384329
     53          1           0        2.207762   -1.343192    4.622460
     54          1           0        3.170487   -0.886209    2.329375
     55          1           0       -0.971296   -0.039963    2.270924
     56          1           0       -3.520312   -0.195545    0.030605
     57          1           0        0.764118    4.521770    0.274366
     58          1           0        5.476945    0.341527   -0.642215
     59          1           0        1.189215   -4.392627   -1.026162
     60          1           0       -2.223470   -4.909255   -2.366380
     61          1           0       -0.656559   -5.324393   -1.714062
     62          1           0       -2.077927   -5.422693   -0.702569
     63          1           0       -3.093170    5.073477    0.103858
     64          1           0       -1.563051    5.343495    0.903166
     65          1           0       -1.655845    5.379832   -0.841293
     66          1           0       -4.557896    1.527637    0.157614
     67          1           0       -4.454790    3.154092    0.744037
     68          1           0       -4.753126    2.279298   -2.113541
     69          1           0       -4.418551    3.940650   -1.634696
     70          1           0       -7.877850    2.253793   -1.505502
     71          1           0       -7.448550   -2.429733   -0.643948
     72          1           0       -4.110560   -4.259176    0.582957
     73          1           0       -4.171302   -2.595032    1.111827
     74          1           0       -4.045124   -3.605131   -1.720100
     75          1           0       -4.395835   -1.942946   -1.316529
     76          1           0        3.561163   -5.131156   -1.964769
     77          1           0        5.095922   -4.870421   -1.171297
     78          1           0        3.682718   -5.277685   -0.227869
     79          1           0        6.389490   -2.420941   -2.057356
     80          1           0        6.626292   -1.576671   -0.545999
     81          1           0        6.240079   -4.547380   -0.928348
     82          1           0        7.665036   -3.741712   -0.317232
     83          1           0        6.201641   -3.772028    0.637034
     84          1           0        5.945650    3.580680   -1.558882
     85          1           0        6.151499    3.702156    0.171995
     86          1           0        6.349161    2.159934   -0.625219
     87          1           0        4.777624    6.140457   -1.325971
     88          1           0        5.134953    6.134213    0.384393
     89          1           0        5.333250    4.674247   -0.554885
     90          1           0        2.812783    5.665388   -0.882467
     91          1           0        3.197190    5.551227    0.818199
 ---------------------------------------------------------------------

 SCF Done:  E(RPBE1PBE) =  -3364.69113245     A.U. after   23 cycles

 The electronic state is 1-A.
 Alpha  occ. eigenvalues -- -256.31850 -30.08243 -25.91109 -25.90742 -25.90706
 Alpha  occ. eigenvalues --  -19.26744 -19.26015 -19.17944 -19.17500 -14.45508
 Alpha  occ. eigenvalues --  -14.40073 -14.36950 -14.36867 -14.36800 -14.36669
 Alpha  occ. eigenvalues --  -10.35302 -10.35293 -10.28788 -10.26793 -10.24480
 Alpha  occ. eigenvalues --  -10.24454 -10.24452 -10.24451 -10.24444 -10.24388
 Alpha  occ. eigenvalues --  -10.24324 -10.24125 -10.23947 -10.23615 -10.23142
 Alpha  occ. eigenvalues --  -10.22890 -10.22691 -10.22666 -10.22210 -10.22054
 Alpha  occ. eigenvalues --  -10.22052 -10.21893 -10.21884 -10.21796 -10.21774
 Alpha  occ. eigenvalues --  -10.21619 -10.21609 -10.21570 -10.21561 -10.21448
 Alpha  occ. eigenvalues --  -10.21401 -10.21353 -10.20886 -10.20854 -10.20258
 Alpha  occ. eigenvalues --  -10.20223 -10.19666 -10.16434  -3.43197  -2.19342
 Alpha  occ. eigenvalues --   -2.18405  -2.18339  -1.16690  -1.16561  -1.07050
 Alpha  occ. eigenvalues --   -1.02606  -1.01820  -0.96910  -0.96164  -0.95814
 Alpha  occ. eigenvalues --   -0.95068  -0.91425  -0.84874  -0.83805  -0.83585
 Alpha  occ. eigenvalues --   -0.82813  -0.82524  -0.81848  -0.80849  -0.80181
 Alpha  occ. eigenvalues --   -0.78994  -0.78571  -0.77691  -0.76277  -0.75311
 Alpha  occ. eigenvalues --   -0.73949  -0.73263  -0.72554  -0.72352  -0.71984
 Alpha  occ. eigenvalues --   -0.69527  -0.69373  -0.69090  -0.66108  -0.65910
 Alpha  occ. eigenvalues --   -0.65369  -0.64979  -0.64818  -0.63834  -0.62793
 Alpha  occ. eigenvalues --   -0.61743  -0.59137  -0.57796  -0.57166  -0.56012
 Alpha  occ. eigenvalues --   -0.55203  -0.54770  -0.53645  -0.52801  -0.52316
 Alpha  occ. eigenvalues --   -0.51951  -0.51651  -0.51058  -0.50788  -0.50505
 Alpha  occ. eigenvalues --   -0.49379  -0.49032  -0.48942  -0.48746  -0.48500
 Alpha  occ. eigenvalues --   -0.48396  -0.48303  -0.48070  -0.47692  -0.46559
 Alpha  occ. eigenvalues --   -0.45477  -0.45313  -0.44849  -0.44414  -0.44178
 Alpha  occ. eigenvalues --   -0.44065  -0.44018  -0.43935  -0.43792  -0.43715
 Alpha  occ. eigenvalues --   -0.43591  -0.42978  -0.42904  -0.42826  -0.42409
 Alpha  occ. eigenvalues --   -0.41842  -0.41539  -0.41293  -0.40871  -0.40759
 Alpha  occ. eigenvalues --   -0.40571  -0.40096  -0.39947  -0.39646  -0.39421
 Alpha  occ. eigenvalues --   -0.39025  -0.38755  -0.38604  -0.38330  -0.37848
 Alpha  occ. eigenvalues --   -0.37605  -0.37121  -0.36943  -0.36767  -0.35967
 Alpha  occ. eigenvalues --   -0.35724  -0.35462  -0.35190  -0.34711  -0.34040
 Alpha  occ. eigenvalues --   -0.33920  -0.33170  -0.32902  -0.32568  -0.32451
 Alpha  occ. eigenvalues --   -0.32097  -0.31901  -0.30374  -0.30021  -0.29187
 Alpha  occ. eigenvalues --   -0.29033  -0.27921  -0.27706  -0.27558  -0.27233
 Alpha  occ. eigenvalues --   -0.25234  -0.24872  -0.24391  -0.24133  -0.23033
 Alpha  occ. eigenvalues --   -0.20889  -0.19904  -0.19512  -0.19352  -0.18618
 Alpha virt. eigenvalues --   -0.06996  -0.06824  -0.01783  -0.01258  -0.00756
 Alpha virt. eigenvalues --    0.00218   0.01815   0.01998   0.02358   0.03573
 Alpha virt. eigenvalues --    0.03727   0.03842   0.04123   0.04476   0.05027

 Mulliken charges:
               1
     1  C   -0.354615
     2  C    0.113705
     3  N   -0.219693
     4  C   -0.152569
     5  C    0.026278
     6  N   -0.047554
     7  Fe   0.046471
     8  C   -0.540082
     9  C   -0.532129
    10  C   -0.534074
    11  C   -0.476213
    12  N   -0.100787
    13  C    0.245670
    14  C    0.033282
    15  C   -0.095540
    16  C    0.338942
    17  C   -0.393202
    18  C   -0.328841
    19  C   -0.153599
    20  C    0.269026
    21  O   -0.378413
    22  O   -0.345988
    23  N   -0.133746
    24  C    0.229248
    25  C   -0.090706
    26  C   -0.084463
    27  C    0.244377
    28  C   -0.339804
    29  N   -0.083470
    30  C    0.326430
    31  C   -0.096332
    32  C   -0.178056
    33  C    0.243468
    34  C   -0.351131
    35  C   -0.028280
    36  C   -0.393187
    37  N   -0.127486
    38  C    0.294556
    39  C   -0.087931
    40  C    0.094703
    41  C    0.272834
    42  C   -0.414589
    43  C   -0.492308
    44  C   -0.106488
    45  C    0.261242
    46  O   -0.348824
    47  O   -0.355309
    48  C   -0.195904
    49  C   -0.323765
    50  H    0.150285
    51  H    0.115473
    52  H    0.150227
    53  H    0.230548
    54  H    0.165860
    55  H    0.154521
    56  H    0.133892
    57  H    0.133320
    58  H    0.084591
    59  H    0.118949
    60  H    0.135119
    61  H    0.123511
    62  H    0.134940
    63  H    0.148209
    64  H    0.133616
    65  H    0.142484
    66  H    0.125580
    67  H    0.150285
    68  H    0.108447
    69  H    0.131952
    70  H    0.354112
    71  H    0.348254
    72  H    0.128381
    73  H    0.129837
    74  H    0.124852
    75  H    0.136596
    76  H    0.129262
    77  H    0.105054
    78  H    0.129753
    79  H    0.114800
    80  H    0.102118
    81  H    0.102312
    82  H    0.117688
    83  H    0.119781
    84  H    0.149215
    85  H    0.144693
    86  H    0.125264
    87  H    0.103133
    88  H    0.104247
    89  H    0.108841
    90  H    0.102199
    91  H    0.092646
 Sum of Mulliken charges =  -0.00000

 Dipole moment (field-independent basis, Debye):
    X=              3.2396    Y=             -1.4781    Z=              2.3872  Tot=              4.2871
 Quadrupole moment (field-independent basis, Debye-Ang):
   XX=           -275.0306   YY=           -312.6960   ZZ=           -263.4062
   XY=             -5.6968   XZ=             34.0499   YZ=             -2.0230

  Exact polarizability: 798.349   3.657 718.341 -17.114  28.935 343.172
 Approx polarizability:1339.837   3.4141301.326 -36.811  87.712 551.074

 Normal termination of Gaussian 16 at Tue Aug 23 12:59:42 2022.
