 Gaussian 16, Revision A.03,
 Gaussian 16:  ES64L-G16RevA.03 25-Dec-2016

 ----------------------------------------------------------------------
 # PBE1PBE/def2TZVP empiricaldispersion=GD3BJ int=(grid=ultrafine) geom
 =check pop=nbo
 ----------------------------------------------------------------------

 ----------
 2oyy_III_H
 ----------
 Structure from the checkpoint file:  "2oyy_III_H.chk"
 Charge =  1 Multiplicity = 6

                         Standard orientation:
 ---------------------------------------------------------------------
 Center     Atomic      Atomic             Coordinates (Angstroms)
 Number     Number       Type             X           Y           Z
 ---------------------------------------------------------------------
      1          6           0        4.234322   -2.734672    5.092978
      2          6           0        3.324331   -2.054154    4.098262
      3          6           0        2.750907   -2.776823    3.051971
      4          6           0        3.020503   -0.684443    4.199126
      5          6           0        1.904437   -2.157646    2.121445
      6          6           0        2.161896   -0.061775    3.278321
      7          6           0        1.612260   -0.805613    2.244641
      8          8           0        0.766830   -0.233178    1.327976
      9          6           0       -2.787468    0.142838   -0.681481
     10          6           0        0.240388    3.840925   -0.311996
     11          6           0        3.985430    0.812123   -0.596773
     12          6           0        0.964460   -2.864424   -1.494712
     13          6           0       -2.307372    1.412287   -0.537497
     14          6           0       -3.113220    2.609248   -0.375730
     15          6           0       -2.271101    3.642892   -0.270642
     16          6           0       -0.918308    3.117160   -0.368513
     17          6           0       -2.635645    5.133296   -0.078560
     18          6           0       -4.661612    2.639101   -0.326109
     19          6           0       -5.156496    2.152237    1.046261
     20          6           0       -6.670238    2.156028    1.111670
     21          8           0       -7.317730    3.125424    0.639950
     22          8           0       -7.246322    1.176881    1.635627
     23          6           0        1.518992    3.339986   -0.373655
     24          6           0        2.716728    4.143085   -0.361170
     25          6           0        3.764623    3.309002   -0.436018
     26          6           0        3.245678    1.959728   -0.506547
     27          6           0        2.734511    5.689203   -0.276090
     28          6           0        5.261501    3.699198   -0.445872
     29          6           0        5.637995    4.013877   -1.709121
     30          6           0        3.484540   -0.447234   -0.842958
     31          6           0        4.273556   -1.648122   -0.953870
     32          6           0        3.447019   -2.670059   -1.206842
     33          6           0        2.102681   -2.138909   -1.264834
     34          6           0        5.807554   -1.683751   -0.795153
     35          6           0        3.808496   -4.155282   -1.379208
     36          6           0        4.968815   -4.260413   -2.071433
     37          6           0       -0.320930   -2.388759   -1.365694
     38          6           0       -1.509866   -3.174613   -1.600087
     39          6           0       -2.654977   -2.235143   -1.355494
     40          6           0       -2.064363   -0.977253   -0.985869
     41          6           0       -1.636904   -4.645731   -2.022627
     42          6           0       -4.149987   -2.595048   -1.455807
     43          6           0       -4.511252   -3.025423   -0.034634
     44          6           0       -5.948604   -3.431373    0.093659
     45          8           0       -6.286068   -4.495709   -0.494563
     46          8           0       -6.720707   -2.700584    0.786256
     47          7           0       -0.974437    1.758859   -0.521787
     48          7           0        1.877447    2.009560   -0.462292
     49          7           0        2.153400   -0.779570   -1.036091
     50          7           0       -0.686008   -1.093298   -1.000501
     51         26           0        0.592548    0.498823   -0.548103
     52          1           0        4.102307   -2.291966    6.058111
     53          1           0        3.993530   -3.776059    5.142305
     54          1           0        5.251878   -2.618156    4.783297
     55          1           0        3.450725   -0.107142    4.990664
     56          1           0        1.933392    0.979190    3.373598
     57          1           0        1.484361   -2.725768    1.317906
     58          1           0        2.960685   -3.821832    2.957903
     59          1           0       -3.839938    0.010090   -0.541535
     60          1           0        0.142202    4.901491   -0.209718
     61          1           0        5.043572    0.900544   -0.464796
     62          1           0        1.083666   -3.883242   -1.799179
     63          1           0       -1.734818   -5.259753   -1.151829
     64          1           0       -2.500839   -4.765461   -2.642451
     65          1           0       -0.763560   -4.936874   -2.567976
     66          1           0       -1.835168    5.634292    0.424570
     67          1           0       -2.795938    5.587289   -1.034121
     68          1           0       -3.528083    5.209618    0.506786
     69          1           0       -5.002208    3.639956   -0.490983
     70          1           0       -5.053024    2.001080   -1.090718
     71          1           0       -4.770625    2.797415    1.807674
     72          1           0       -4.800334    1.157493    1.215179
     73          1           0       -7.247316    1.074981    2.590203
     74          1           0       -6.376409   -2.220694    1.543068
     75          1           0       -4.321278   -2.210508    0.632242
     76          1           0       -3.892191   -3.852454    0.244085
     77          1           0       -4.724066   -1.740577   -1.747716
     78          1           0       -4.297548   -3.402251   -2.142501
     79          1           0        3.925098   -4.608006   -0.416740
     80          1           0        3.027203   -4.652657   -1.915025
     81          1           0        5.723346   -4.682278   -1.440868
     82          1           0        4.820636   -4.892314   -2.922106
     83          1           0        5.278593   -3.289653   -2.397873
     84          1           0        6.060424   -1.616892    0.242385
     85          1           0        6.186426   -2.600532   -1.196240
     86          1           0        6.239847   -0.858545   -1.321515
     87          1           0        3.566225    6.004127    0.318869
     88          1           0        2.824250    6.099555   -1.260193
     89          1           0        1.825346    6.032241    0.171843
     90          1           0        5.414053    4.544104    0.192691
     91          1           0        5.847067    2.875733   -0.093852
     92          1           0        6.706159    4.023195   -1.771076
     93          1           0        5.247607    3.286060   -2.389400
     94          1           0        5.257480    4.980831   -1.964285
     95          1           0        0.600498    0.680083    1.572698
 ---------------------------------------------------------------------

 SCF Done:  E(UPBE1PBE) =  -3445.68093023     A.U. after   29 cycles

 Alpha virt. eigenvalues --    0.71160   0.71534   0.71847   0.71980   0.72159
 Alpha virt. eigenvalues --    0.72451   0.72887   0.73092   0.73217   0.73421
 Alpha virt. eigenvalues --    0.73612   0.73848   0.74072   0.74507   0.74621

  Beta  occ. eigenvalues -- -256.59035 -30.32013 -26.15465 -26.15118 -26.15073
  Beta  occ. eigenvalues --  -19.39925 -19.34404 -19.33784 -19.26490 -19.25149
  Beta  occ. eigenvalues --  -14.50669 -14.50593 -14.49493 -14.49246 -10.43755
  Beta  occ. eigenvalues --  -10.42847 -10.40137 -10.37335 -10.37322 -10.37208
  Beta  occ. eigenvalues --  -10.37180 -10.36956 -10.36886 -10.36805 -10.36569
  Beta  occ. eigenvalues --  -10.35223 -10.34886 -10.34081 -10.33832 -10.33818
  Beta  occ. eigenvalues --  -10.33807 -10.33780 -10.33672 -10.33656 -10.33599
  Beta  occ. eigenvalues --  -10.33370 -10.33294 -10.33233 -10.32959 -10.32954
  Beta  occ. eigenvalues --  -10.32861 -10.32721 -10.32661 -10.32605 -10.32542
  Beta  occ. eigenvalues --  -10.31733 -10.31446 -10.31332 -10.31118 -10.30607
  Beta  occ. eigenvalues --  -10.30404 -10.30193 -10.29576 -10.27477 -10.27086
  Beta  occ. eigenvalues --   -3.61118  -2.36253  -2.35103  -2.35036  -1.25292
  Beta  occ. eigenvalues --   -1.24872  -1.23775  -1.10822  -1.10556  -1.09805
  Beta  occ. eigenvalues --   -1.09652  -1.08890  -1.07283  -0.98660  -0.96278
  Beta  occ. eigenvalues --   -0.95293  -0.95002  -0.94150  -0.93537  -0.93188
  Beta  occ. eigenvalues --   -0.92595  -0.89985  -0.89811  -0.89545  -0.88808
  Beta  occ. eigenvalues --   -0.88245  -0.87837  -0.87611  -0.85197  -0.82794
  Beta  occ. eigenvalues --   -0.82366  -0.82118  -0.81510  -0.80554  -0.79228
  Beta  occ. eigenvalues --   -0.78277  -0.77654  -0.77095  -0.75821  -0.75215
  Beta  occ. eigenvalues --   -0.75143  -0.73046  -0.72824  -0.72629  -0.71154
  Beta  occ. eigenvalues --   -0.70394  -0.68251  -0.67543  -0.67074  -0.66718
  Beta  occ. eigenvalues --   -0.65360  -0.64448  -0.63740  -0.63451  -0.63122
  Beta  occ. eigenvalues --   -0.62134  -0.62028  -0.61230  -0.60539  -0.59651
  Beta  occ. eigenvalues --   -0.59178  -0.59075  -0.59002  -0.58513  -0.58227
  Beta  occ. eigenvalues --   -0.57903  -0.57524  -0.57101  -0.56716  -0.56355
  Beta  occ. eigenvalues --   -0.55995  -0.55977  -0.55584  -0.55254  -0.55132
  Beta  occ. eigenvalues --   -0.54972  -0.54506  -0.54234  -0.53946  -0.53854
  Beta  occ. eigenvalues --   -0.53531  -0.53400  -0.53065  -0.52652  -0.52577
  Beta  occ. eigenvalues --   -0.52239  -0.52136  -0.51969  -0.51681  -0.51563
  Beta  occ. eigenvalues --   -0.51160  -0.50726  -0.50588  -0.50106  -0.49711
  Beta  occ. eigenvalues --   -0.49518  -0.49176  -0.49057  -0.48816  -0.48656
  Beta  occ. eigenvalues --   -0.48424  -0.48250  -0.48089  -0.47669  -0.46844
  Beta  occ. eigenvalues --   -0.46612  -0.46472  -0.46438  -0.46012  -0.45621
  Beta  occ. eigenvalues --   -0.45459  -0.44920  -0.44316  -0.43886  -0.43527
  Beta  occ. eigenvalues --   -0.43157  -0.42860  -0.42789  -0.42474  -0.42192
  Beta  occ. eigenvalues --   -0.41638  -0.40290  -0.40011  -0.39616  -0.37284
  Beta  occ. eigenvalues --   -0.36841  -0.36738  -0.36086  -0.35602  -0.35065
  Beta  occ. eigenvalues --   -0.34715  -0.33415  -0.31940  -0.31040
  Beta virt. eigenvalues --   -0.23624  -0.23400  -0.21682  -0.20908  -0.18779
  Beta virt. eigenvalues --   -0.18136  -0.14636  -0.12346  -0.11464  -0.10102
  Beta virt. eigenvalues --   -0.09623  -0.08984  -0.08559  -0.07145  -0.06882

 Mulliken charges and spin densities:
               1          2
     1  C   -0.382597  -0.000928
     2  C    0.163034   0.014307
     3  C   -0.217870  -0.007092
     4  C   -0.205418  -0.006361
     5  C   -0.173557   0.012168
     6  C   -0.207108   0.012952
     7  C    0.308897   0.004086
     8  O   -0.298592   0.047949
     9  C   -0.430703  -0.001282
    10  C   -0.470990  -0.009523
    11  C   -0.520020  -0.003389
    12  C   -0.549098  -0.005302
    13  C    0.267394   0.007436
    14  C    0.034946   0.020054
    15  C   -0.087079   0.019309
    16  C    0.300198   0.010556
    17  C   -0.400378   0.000291
    18  C   -0.370063  -0.000967
    19  C   -0.226347   0.001001
    20  C    0.314920   0.000147
    21  O   -0.325269   0.000030
    22  O   -0.350030   0.000080
    23  C    0.318163   0.011973
    24  C   -0.077401   0.022916
    25  C   -0.053387   0.024226
    26  C    0.334091   0.008549
    27  C   -0.386085   0.000068
    28  C   -0.158815  -0.000146
    29  C   -0.346862   0.000408
    30  C    0.316482   0.010837
    31  C   -0.083474   0.014550
    32  C   -0.087504   0.022988
    33  C    0.242536   0.009235
    34  C   -0.371336   0.000110
    35  C   -0.061670   0.000313
    36  C   -0.411002   0.000528
    37  C    0.371025   0.003825
    38  C   -0.109321   0.040266
    39  C   -0.023639   0.035679
    40  C    0.260171   0.006652
    41  C   -0.389880  -0.000195
    42  C   -0.221016  -0.001291
    43  C   -0.275261   0.001617
    44  C    0.351163   0.000449
    45  O   -0.358149   0.000278
    46  O   -0.305149   0.000158
    47  N   -0.116860   0.063604
    48  N   -0.081806   0.079055
    49  N   -0.161814   0.087251
    50  N   -0.118553   0.088530
    51  Fe   0.147749   4.341476
    52  H    0.142438   0.000282
    53  H    0.140624   0.000198
    54  H    0.144955   0.000851
    55  H    0.136979   0.000615
    56  H    0.127452  -0.000745
    57  H    0.153763   0.000186
    58  H    0.129908   0.000466
    59  H    0.139034  -0.000600
    60  H    0.122371   0.000031
    61  H    0.138707  -0.000334
    62  H    0.117964  -0.000605
    63  H    0.160268   0.001797
    64  H    0.157198   0.000890
    65  H    0.141251   0.000357
    66  H    0.134919   0.000143
    67  H    0.170761   0.000869
    68  H    0.155737   0.000385
    69  H    0.172540   0.000514
    70  H    0.156599   0.000328
    71  H    0.147075  -0.000023
    72  H    0.102144  -0.000037
    73  H    0.357309  -0.000003
    74  H    0.338660  -0.000011
    75  H    0.100173  -0.000092
    76  H    0.144951  -0.000092
    77  H    0.140779   0.000289
    78  H    0.151961   0.000687
    79  H    0.114509   0.000821
    80  H    0.102310   0.000264
    81  H    0.129615   0.000045
    82  H    0.132711   0.000193
    83  H    0.141458   0.000102
    84  H    0.155067   0.000570
    85  H    0.160698   0.000406
    86  H    0.140382   0.000337
    87  H    0.147930   0.000539
    88  H    0.166980   0.001120
    89  H    0.134925   0.000178
    90  H    0.114663   0.000483
    91  H    0.105735   0.000173
    92  H    0.130846   0.000479
    93  H    0.123246   0.000085
    94  H    0.122622  -0.000027
    95  H    0.333115  -0.001542
 Sum of Mulliken charges =   1.00000   5.00000

 Dipole moment (field-independent basis, Debye):
    X=              9.6825    Y=              2.5520    Z=              5.7403  Tot=             11.5419
 Quadrupole moment (field-independent basis, Debye-Ang):
   XX=           -271.1450   YY=           -251.6435   ZZ=           -270.4071
   XY=            -13.4342   XZ=            -18.3048   YZ=              1.4461

 Summary of Natural Population Analysis:

                                       Natural Population
                Natural  -----------------------------------------------
    Atom  No    Charge         Core      Valence    Rydberg      Total
 -----------------------------------------------------------------------
      C    1   -0.31637      0.99970     2.31087    0.00580     3.31637
      C    2    0.00314      0.99958     1.98860    0.00868     2.99686
      C    3   -0.09607      0.99957     2.08832    0.00818     3.09607
      C    4   -0.09392      0.99959     2.08633    0.00801     3.09392
      C    5   -0.11498      0.99955     2.10642    0.00901     3.11498
      C    6   -0.12572      0.99955     2.11757    0.00860     3.12572
      C    7    0.12220      0.99932     1.86783    0.01065     2.87780
      O    8   -0.25565      0.99989     3.24497    0.01079     4.25565
      C    9   -0.10539      0.99945     2.09749    0.00845     3.10539
      C   10   -0.11679      0.99947     2.10962    0.00771     3.11679
      C   11   -0.10802      0.99946     2.10070    0.00785     3.10802
      C   12   -0.09804      0.99945     2.09088    0.00770     3.09804
      C   13    0.07948      0.99951     1.91110    0.00990     2.92052
      C   14    0.00837      0.99937     1.98298    0.00928     2.99163
      C   15    0.00871      0.99937     1.98375    0.00816     2.99129
      C   16    0.08453      0.99952     1.90588    0.01007     2.91547
      C   17   -0.31899      0.99969     2.31569    0.00360     3.31899
      C   18   -0.20899      0.99967     2.20192    0.00739     3.20899
      C   19   -0.25533      0.99963     2.24741    0.00829     3.25533
      C   20    0.38116      0.99976     1.60171    0.01738     2.61884
      O   21   -0.27134      0.99990     3.26000    0.01144     4.27134
      O   22   -0.34108      0.99979     3.32596    0.01532     4.34108
      C   23    0.08378      0.99951     1.90676    0.00994     2.91622
      C   24    0.00890      0.99937     1.98340    0.00833     2.99110
      C   25    0.01717      0.99938     1.97389    0.00955     2.98283
      C   26    0.08414      0.99951     1.90620    0.01015     2.91586
      C   27   -0.31811      0.99969     2.31482    0.00359     3.31811
      C   28   -0.20840      0.99957     2.20040    0.00843     3.20840
      C   29   -0.29767      0.99961     2.29000    0.00806     3.29767
      C   30    0.08794      0.99951     1.90269    0.00986     2.91206
      C   31   -0.00086      0.99937     1.99329    0.00820     3.00086
      C   32    0.01520      0.99938     1.97586    0.00957     2.98480
      C   33    0.08048      0.99951     1.90982    0.01019     2.91952
      C   34   -0.32436      0.99969     2.32103    0.00364     3.32436
      C   35   -0.21690      0.99957     2.20869    0.00864     3.21690
      C   36   -0.30600      0.99962     2.29776    0.00863     3.30600
      C   37    0.06591      0.99948     1.92454    0.01006     2.93409
      C   38    0.03090      0.99957     1.96196    0.00756     2.96910
      C   39    0.02926      0.99957     1.96278    0.00839     2.97074
      C   40    0.06393      0.99947     1.92682    0.00978     2.93607
      C   41   -0.32391      0.99968     2.32052    0.00371     3.32391
      C   42   -0.21263      0.99966     2.20572    0.00726     3.21263
      C   43   -0.24811      0.99963     2.23972    0.00877     3.24811
      C   44    0.37820      0.99971     1.60547    0.01661     2.62180
      O   45   -0.28278      0.99990     3.27131    0.01157     4.28278
      O   46   -0.31772      0.99981     3.30299    0.01491     4.31772
      N   47   -0.20873      0.99968     2.69116    0.01789     3.70873
      N   48   -0.20390      0.99967     2.68640    0.01783     3.70390
      N   49   -0.18895      0.99969     2.67166    0.01760     3.68895
      N   50   -0.18796      0.99969     2.67040    0.01786     3.68796
     Fe   51    2.63707      8.99493     1.35077    0.01724    10.36293
      H   52    0.11355      0.00000     0.38595    0.00050     0.38645
      H   53    0.11242      0.00000     0.38709    0.00049     0.38758
      H   54    0.11508      0.00000     0.38437    0.00055     0.38492
      H   55    0.11244      0.00000     0.38694    0.00062     0.38756
      H   56    0.10844      0.00000     0.39087    0.00068     0.39156
      H   57    0.11697      0.00000     0.38203    0.00100     0.38303
      H   58    0.11087      0.00000     0.38846    0.00067     0.38913
      H   59    0.11294      0.00000     0.38563    0.00143     0.38706
      H   60    0.11678      0.00000     0.38188    0.00134     0.38322
      H   61    0.11747      0.00000     0.38116    0.00137     0.38253
      H   62    0.11675      0.00000     0.38172    0.00153     0.38325
      H   63    0.11848      0.00000     0.38078    0.00074     0.38152
      H   64    0.11961      0.00000     0.37965    0.00074     0.38039
      H   65    0.11277      0.00000     0.38662    0.00061     0.38723
      H   66    0.11084      0.00000     0.38857    0.00059     0.38916
      H   67    0.11957      0.00000     0.37976    0.00067     0.38043
      H   68    0.11643      0.00000     0.38293    0.00064     0.38357
      H   69    0.12521      0.00000     0.37407    0.00072     0.37479
      H   70    0.11424      0.00000     0.38501    0.00075     0.38576
      H   71    0.11991      0.00000     0.37946    0.00063     0.38009
      H   72    0.10263      0.00000     0.39657    0.00080     0.39737
      H   73    0.25826      0.00000     0.24060    0.00114     0.24174
      H   74    0.25061      0.00000     0.24824    0.00115     0.24939
      H   75    0.09435      0.00000     0.40481    0.00084     0.40565
      H   76    0.12142      0.00000     0.37794    0.00064     0.37858
      H   77    0.11185      0.00000     0.38737    0.00078     0.38815
      H   78    0.12468      0.00000     0.37449    0.00083     0.37532
      H   79    0.11379      0.00000     0.38545    0.00076     0.38621
      H   80    0.10793      0.00000     0.39141    0.00066     0.39207
      H   81    0.10716      0.00000     0.39226    0.00058     0.39284
      H   82    0.11264      0.00000     0.38680    0.00057     0.38736
      H   83    0.10785      0.00000     0.39144    0.00071     0.39215
      H   84    0.11599      0.00000     0.38330    0.00071     0.38401
      H   85    0.11855      0.00000     0.38063    0.00081     0.38145
      H   86    0.11276      0.00000     0.38659    0.00065     0.38724
      H   87    0.11553      0.00000     0.38372    0.00075     0.38447
      H   88    0.11846      0.00000     0.38085    0.00069     0.38154
      H   89    0.11021      0.00000     0.38920    0.00059     0.38979
      H   90    0.11039      0.00000     0.38875    0.00086     0.38961
      H   91    0.10489      0.00000     0.39434    0.00077     0.39511
      H   92    0.11013      0.00000     0.38925    0.00062     0.38987
      H   93    0.10419      0.00000     0.39514    0.00067     0.39581
      H   94    0.10436      0.00000     0.39493    0.00071     0.39564
      H   95    0.25381      0.00000     0.24450    0.00169     0.24619
 =======================================================================
   * Total *    3.00000     58.97423   129.48441    0.54135   189.00000

 Normal termination of Gaussian 16 at Mon Nov  7 22:18:40 2022.
