 Gaussian 16, Revision A.03,
 Gaussian 16:  ES64L-G16RevA.03 25-Dec-2016

 ---------------------------------------------------------------------
 # polar def2tzvp empiricaldispersion=gd3bj int=grid=ultrafine pbe1pbe
 ---------------------------------------------------------------------

 ---------
 2oyy_II_S
 ---------
 Symbolic Z-matrix:
 Charge =  0 Multiplicity = 1

                         Standard orientation:
 ---------------------------------------------------------------------
 Center     Atomic      Atomic             Coordinates (Angstroms)
 Number     Number       Type             X           Y           Z
 ---------------------------------------------------------------------
      1          6           0        4.321628   -2.725521    5.045527
      2          6           0        3.403648   -2.046433    4.057194
      3          6           0        2.824204   -2.769966    3.014826
      4          6           0        3.098249   -0.677237    4.160289
      5          6           0        1.970290   -2.152119    2.090236
      6          6           0        2.232260   -0.055921    3.245505
      7          6           0        1.676724   -0.800585    2.215579
      8          8           0        0.824023   -0.229479    1.304839
      9          6           0       -2.744709    0.140795   -0.679951
     10          6           0        0.279477    3.843881   -0.331062
     11          6           0        4.027491    0.821337   -0.642026
     12          6           0        1.006499   -2.860155   -1.519401
     13          6           0       -2.265739    1.411028   -0.539169
     14          6           0       -3.072439    2.606634   -0.371717
     15          6           0       -2.231332    3.641668   -0.272357
     16          6           0       -0.878376    3.118195   -0.379633
     17          6           0       -2.597017    5.131447   -0.077615
     18          6           0       -4.620498    2.633906   -0.311385
     19          6           0       -5.105067    2.146104    1.064328
     20          6           0       -6.618325    2.147372    1.140206
     21          8           0       -7.270675    3.115729    0.673069
     22          8           0       -7.189143    1.167224    1.668041
     23          6           0        1.558455    3.345075   -0.401611
     24          6           0        2.754912    4.150164   -0.397334
     25          6           0        3.803650    3.317831   -0.479508
     26          6           0        3.286474    1.967702   -0.546575
     27          6           0        2.770713    5.696302   -0.312230
     28          6           0        5.299773    3.710517   -0.499678
     29          6           0        5.891119    4.066916   -1.665806
     30          6           0        3.527005   -0.438831   -0.884861
     31          6           0        4.317231   -1.638396   -1.001343
     32          6           0        3.490664   -2.661684   -1.248691
     33          6           0        2.145076   -2.132766   -1.297332
     34          6           0        5.852347   -1.671487   -0.853244
     35          6           0        3.853409   -4.146290   -1.423695
     36          6           0        4.976903   -4.494526   -2.096792
     37          6           0       -0.278757   -2.386639   -1.381451
     38          6           0       -1.467977   -3.174449   -1.607690
     39          6           0       -2.612930   -2.236906   -1.355092
     40          6           0       -2.021865   -0.978067   -0.989440
     41          6           0       -1.595488   -4.645741   -2.029482
     42          6           0       -4.107997   -2.599289   -1.445097
     43          6           0       -4.458707   -3.030384   -0.021500
     44          6           0       -5.894460   -3.438735    0.116692
     45          8           0       -6.234215   -4.503581   -0.469284
     46          8           0       -6.662969   -2.709290    0.814683
     47          7           0       -0.933306    1.759816   -0.532645
     48          7           0        1.918500    2.015254   -0.492853
     49          7           0        2.195116   -0.773364   -1.068815
     50          7           0       -0.643453   -1.091817   -1.013617
     51         26           0        0.635553    0.502390   -0.569920
     52          1           0        4.195556   -2.283116    6.011593
     53          1           0        4.082915   -3.767311    5.096419
     54          1           0        5.336823   -2.607286    4.728827
     55          1           0        3.532975   -0.099288    4.948888
     56          1           0        2.002689    0.984655    3.342460
     57          1           0        1.545611   -2.720871    1.289567
     58          1           0        3.035063   -3.814617    2.919208
     59          1           0       -3.795963    0.006284   -0.532741
     60          1           0        0.180238    4.904273   -0.228006
     61          1           0        5.086372    0.911506   -0.517362
     62          1           0        1.125290   -3.878747   -1.824784
     63          1           0       -1.686356   -5.259998   -1.158086
     64          1           0       -2.463489   -4.766855   -2.643327
     65          1           0       -0.725454   -4.935385   -2.580887
     66          1           0       -1.793913    5.633731    0.420015
     67          1           0       -2.764669    5.585253   -1.032001
     68          1           0       -3.485510    5.206236    0.513897
     69          1           0       -4.963889    3.634208   -0.473803
     70          1           0       -5.016127    1.995300   -1.073329
     71          1           0       -4.715013    2.791859    1.823116
     72          1           0       -4.746092    1.151939    1.230684
     73          1           0       -7.183364    1.065241    2.622591
     74          1           0       -6.314243   -2.228891    1.569141
     75          1           0       -4.265480   -2.215211    0.644124
     76          1           0       -3.836359   -3.856408    0.252850
     77          1           0       -4.685501   -1.745749   -1.732947
     78          1           0       -4.258962   -3.406679   -2.130831
     79          1           0        6.112275   -1.604294    0.182528
     80          1           0        6.229959   -2.587602   -1.257029
     81          1           0        6.279616   -0.845518   -1.382503
     82          1           0        3.605997    6.012559    0.276992
     83          1           0        2.852960    6.106885   -1.296891
     84          1           0        1.864098    6.037789    0.142013
     85          1           0        0.657870    0.683483    1.550793
     86          1           0        5.867732    3.700740    0.407090
     87          1           0        6.865617    4.508729   -1.658350
     88          1           0        5.383520    3.906499   -2.593981
     89          1           0        3.218674   -4.904014   -1.013981
     90          1           0        5.914082   -4.546002   -1.583034
     91          1           0        4.926782   -4.717998   -3.141994
 ---------------------------------------------------------------------

 SCF Done:  E(RPBE1PBE) =  -3443.31657836     A.U. after   36 cycles

 The electronic state is 1-A.
 Alpha  occ. eigenvalues -- -256.33687 -30.10170 -25.93260 -25.92529 -25.92514
 Alpha  occ. eigenvalues --  -19.27399 -19.27246 -19.26893 -19.19379 -19.17820
 Alpha  occ. eigenvalues --  -14.38794 -14.38750 -14.38247 -14.37457 -10.36511
 Alpha  occ. eigenvalues --  -10.35348 -10.30078 -10.25760 -10.25619 -10.25562
 Alpha  occ. eigenvalues --  -10.25548 -10.25546 -10.25515 -10.25316 -10.25238
 Alpha  occ. eigenvalues --  -10.25090 -10.24454 -10.24380 -10.24239 -10.23989
 Alpha  occ. eigenvalues --  -10.23981 -10.23810 -10.23727 -10.23655 -10.23556
 Alpha  occ. eigenvalues --  -10.23519 -10.23400 -10.23318 -10.23316 -10.23207
 Alpha  occ. eigenvalues --  -10.23202 -10.23176 -10.23030 -10.22671 -10.22663
 Alpha  occ. eigenvalues --  -10.22602 -10.22534 -10.22449 -10.22420 -10.22237
 Alpha  occ. eigenvalues --  -10.22080 -10.21915 -10.21878 -10.21686 -10.21154
 Alpha  occ. eigenvalues --   -3.45380  -2.22017  -2.20434  -2.20326  -1.17939
 Alpha  occ. eigenvalues --   -1.16579  -1.12787  -1.03500  -1.02367  -0.99007
 Alpha  occ. eigenvalues --   -0.98103  -0.97496  -0.95570  -0.89209  -0.85076
 Alpha  occ. eigenvalues --   -0.84304  -0.83658  -0.83225  -0.82817  -0.82052
 Alpha  occ. eigenvalues --   -0.81831  -0.80669  -0.80040  -0.78602  -0.78197
 Alpha  occ. eigenvalues --   -0.77829  -0.77672  -0.76782  -0.74708  -0.73091
 Alpha  occ. eigenvalues --   -0.72343  -0.72188  -0.71996  -0.70914  -0.70190
 Alpha  occ. eigenvalues --   -0.69324  -0.67672  -0.66987  -0.66457  -0.65900
 Alpha  occ. eigenvalues --   -0.65844  -0.62916  -0.61813  -0.61562  -0.60124
 Alpha  occ. eigenvalues --   -0.58958  -0.58377  -0.56931  -0.55910  -0.55671
 Alpha  occ. eigenvalues --   -0.54341  -0.54078  -0.53671  -0.53391  -0.52718
 Alpha  occ. eigenvalues --   -0.52465  -0.52116  -0.51780  -0.50284  -0.50049
 Alpha  occ. eigenvalues --   -0.49800  -0.49581  -0.49423  -0.49041  -0.47802
 Alpha  occ. eigenvalues --   -0.47650  -0.47272  -0.47175  -0.46702  -0.46600
 Alpha  occ. eigenvalues --   -0.46250  -0.45726  -0.45484  -0.45191  -0.45085
 Alpha  occ. eigenvalues --   -0.44955  -0.44688  -0.44499  -0.44291  -0.44152
 Alpha  occ. eigenvalues --   -0.43936  -0.43838  -0.43500  -0.43120  -0.42965
 Alpha  occ. eigenvalues --   -0.42448  -0.41985  -0.41557  -0.41459  -0.41377
 Alpha  occ. eigenvalues --   -0.40895  -0.40708  -0.40412  -0.40405  -0.40162
 Alpha  occ. eigenvalues --   -0.39989  -0.39488  -0.39255  -0.38963  -0.38493
 Alpha  occ. eigenvalues --   -0.38166  -0.38031  -0.37696  -0.37436  -0.37155
 Alpha  occ. eigenvalues --   -0.36680  -0.36408  -0.36335  -0.36195  -0.36025
 Alpha  occ. eigenvalues --   -0.35515  -0.34744  -0.34091  -0.33806  -0.33369
 Alpha  occ. eigenvalues --   -0.32354  -0.31877  -0.30573  -0.29470  -0.29302
 Alpha  occ. eigenvalues --   -0.28976  -0.28106  -0.27592  -0.27523  -0.27374
 Alpha  occ. eigenvalues --   -0.27001  -0.26278  -0.24963  -0.23700  -0.22826
 Alpha  occ. eigenvalues --   -0.21892  -0.20953  -0.20468  -0.20226  -0.17613
 Alpha virt. eigenvalues --   -0.10629  -0.08455  -0.07259  -0.04354  -0.03002
 Alpha virt. eigenvalues --   -0.02242  -0.01871  -0.01396  -0.00890  -0.00102
 Alpha virt. eigenvalues --    0.00457   0.02049   0.02383   0.03011   0.03972

 Mulliken charges:
               1
     1  C   -0.387095
     2  C    0.172259
     3  C   -0.214446
     4  C   -0.209319
     5  C   -0.167224
     6  C   -0.206905
     7  C    0.284870
     8  O   -0.291999
     9  C   -0.435375
    10  C   -0.462389
    11  C   -0.469903
    12  C   -0.581850
    13  C    0.246450
    14  C    0.019960
    15  C   -0.084512
    16  C    0.270367
    17  C   -0.416940
    18  C   -0.373408
    19  C   -0.221076
    20  C    0.312489
    21  O   -0.339729
    22  O   -0.352497
    23  C    0.288086
    24  C   -0.028488
    25  C   -0.037588
    26  C    0.259458
    27  C   -0.375659
    28  C   -0.293623
    29  C   -0.238146
    30  C    0.317681
    31  C    0.005541
    32  C   -0.023030
    33  C    0.217048
    34  C   -0.372593
    35  C   -0.209681
    36  C   -0.342461
    37  C    0.388609
    38  C   -0.112790
    39  C   -0.049063
    40  C    0.237043
    41  C   -0.405927
    42  C   -0.230561
    43  C   -0.266535
    44  C    0.348441
    45  O   -0.374636
    46  O   -0.313795
    47  N   -0.094035
    48  N   -0.043824
    49  N   -0.111932
    50  N   -0.088661
    51  Fe  -0.052801
    52  H    0.129446
    53  H    0.130192
    54  H    0.135702
    55  H    0.115620
    56  H    0.119291
    57  H    0.150478
    58  H    0.110643
    59  H    0.115027
    60  H    0.101272
    61  H    0.134314
    62  H    0.112280
    63  H    0.142428
    64  H    0.140921
    65  H    0.133353
    66  H    0.128374
    67  H    0.152685
    68  H    0.140034
    69  H    0.157445
    70  H    0.146222
    71  H    0.139548
    72  H    0.105592
    73  H    0.351443
    74  H    0.338153
    75  H    0.099995
    76  H    0.138926
    77  H    0.130425
    78  H    0.136828
    79  H    0.143210
    80  H    0.103273
    81  H    0.130201
    82  H    0.137234
    83  H    0.144998
    84  H    0.123334
    85  H    0.330815
    86  H    0.132985
    87  H    0.128366
    88  H    0.138150
    89  H    0.152344
    90  H    0.159098
    91  H    0.151553
 Sum of Mulliken charges =  -0.00000

 Dipole moment (field-independent basis, Debye):
    X=              6.1982    Y=              2.1841    Z=              6.9100  Tot=              9.5361
 Quadrupole moment (field-independent basis, Debye-Ang):
   XX=           -336.0975   YY=           -308.5607   ZZ=           -284.8389
   XY=            -11.4171   XZ=            -19.7360   YZ=             -1.9659

  Exact polarizability: 862.087 -52.797 804.471 -19.171  59.904 386.958
 Approx polarizability:1456.967-118.8461507.835 -23.544 173.056 629.311

 Normal termination of Gaussian 16 at Sun Aug 28 17:43:53 2022.
