 Gaussian 16, Revision A.03,
 Gaussian 16:  ES64L-G16RevA.03 25-Dec-2016

 ----------------------------------------------------------------------
 # PBE1PBE/def2TZVP empiricaldispersion=GD3BJ int=(grid=ultrafine) geom
 =check guess=read pop=nbo
 ----------------------------------------------------------------------

 -------------
 2v07_II_S_nbo
 -------------
 Structure from the checkpoint file:  "2v07_II_S.chk"
 Charge =  0 Multiplicity = 1

                         Standard orientation:
 ---------------------------------------------------------------------
 Center     Atomic      Atomic             Coordinates (Angstroms)
 Number     Number       Type             X           Y           Z
 ---------------------------------------------------------------------
      1          6           0        2.644068   -1.585285    4.965724
      2          6           0        1.804293   -1.106549    3.817534
      3          7           0        0.450037   -0.912954    3.939492
      4          6           0        2.113948   -0.809797    2.528619
      5          6           0       -0.047469   -0.508556    2.777320
      6          7           0        0.936052   -0.458039    1.896003
      7          6           0       -1.329303    2.201808   -2.798114
      8          6           0       -0.605716    0.915390   -3.196431
      9         16           0        0.897720    0.643730   -2.311130
     10          6           0        1.705736   -0.598781   -3.268844
     11         26           0        0.842731    0.013503   -0.052691
     12          6           0       -2.570892   -0.407909   -0.089486
     13          6           0        1.249349   -3.302958   -0.710999
     14          6           0        4.226438    0.497914   -0.356674
     15          6           0        0.480902    3.215656    0.920391
     16          7           0       -0.413346   -1.538952   -0.366911
     17          6           0       -1.798622   -1.515922   -0.288706
     18          6           0       -2.295121   -2.869238   -0.451881
     19          6           0       -1.238941   -3.665821   -0.651600
     20          6           0       -0.026030   -2.849501   -0.596511
     21          6           0       -1.246718   -5.185369   -0.873209
     22          6           0       -3.788045   -3.235694   -0.376122
     23          6           0       -4.226518   -3.183248    1.093120
     24          6           0       -5.717942   -3.365306    1.294438
     25          8           0       -6.479116   -3.171864    0.312809
     26          8           0       -6.158246   -3.663263    2.459937
     27          7           0        2.445694   -1.157446   -0.448377
     28          6           0        2.389319   -2.514355   -0.655359
     29          6           0        3.734335   -2.991000   -0.873586
     30          6           0        4.565420   -1.938615   -0.785959
     31          6           0        3.756926   -0.770200   -0.530629
     32          6           0        4.046720   -4.466222   -1.153722
     33          6           0        6.078420   -1.877185   -1.008381
     34          6           0        6.451217   -2.285307   -2.261389
     35          7           0        2.130786    1.564584    0.224037
     36          6           0        3.477771    1.553847    0.056604
     37          6           0        3.986951    2.858384    0.444458
     38          6           0        2.949098    3.625170    0.803520
     39          6           0        1.755175    2.812600    0.659559
     40          6           0        5.455909    3.246796    0.420270
     41          6           0        2.969159    5.070415    1.310713
     42          6           0        3.634288    6.048084    0.668069
     43          7           0       -0.752837    1.181739    0.346733
     44          6           0       -0.651642    2.528218    0.673649
     45          6           0       -1.977284    3.126731    0.721598
     46          6           0       -2.907700    2.010105    0.385728
     47          6           0       -2.092408    0.849306    0.182941
     48          6           0       -2.343145    4.590747    1.008413
     49          6           0       -4.424344    2.153149    0.281205
     50          6           0       -4.740876    2.627023   -1.143523
     51          6           0       -6.233377    2.835802   -1.369524
     52          8           0       -6.659902    3.033099   -2.523895
     53          8           0       -7.012893    2.828326   -0.407810
     54          1           0        3.403046   -2.245725    4.601482
     55          1           0        2.025759   -2.105027    5.667480
     56          1           0        3.102074   -0.746391    5.446753
     57          1           0        3.087463   -0.842226    2.085767
     58          1           0       -1.071642   -0.264687    2.586278
     59          1           0       -2.299993    2.218958   -3.247964
     60          1           0       -1.428877    2.239999   -1.733442
     61          1           0       -0.765487    3.046848   -3.134147
     62          1           0       -0.323174    1.043681   -4.220448
     63          1           0       -1.258166    0.114415   -2.917776
     64          1           0        2.543967   -0.980154   -2.724028
     65          1           0        2.043064   -0.174772   -4.191517
     66          1           0        1.020123   -1.394824   -3.471703
     67          1           0       -3.632255   -0.529095   -0.150504
     68          1           0        1.385829   -4.354275   -0.855935
     69          1           0        5.261771    0.674841   -0.560838
     70          1           0        0.366733    4.180443    1.368780
     71          1           0       -0.259745   -5.514398   -1.123258
     72          1           0       -1.916072   -5.425802   -1.672619
     73          1           0       -1.569756   -5.674692    0.021838
     74          1           0       -3.876689   -4.253883   -0.692876
     75          1           0       -4.325423   -2.466637   -0.890591
     76          1           0       -4.005513   -2.191516    1.428567
     77          1           0       -3.763266   -4.023743    1.566265
     78          1           0        5.101832   -4.589210   -1.282221
     79          1           0        3.540547   -4.775087   -2.044391
     80          1           0        3.715714   -5.063550   -0.329990
     81          1           0        6.558085   -2.503650   -0.285634
     82          1           0        5.667241   -2.066180   -2.955842
     83          1           0        7.341688   -1.769406   -2.554320
     84          1           0        5.555984    4.279930    0.680115
     85          1           0        5.994789    2.648066    1.124565
     86          1           0        5.851273    3.085880   -0.560899
     87          1           0        2.436041    5.310923    2.206727
     88          1           0        4.173416    5.827746   -0.229535
     89          1           0        3.623975    7.045723    1.054734
     90          1           0       -3.404559    4.679754    1.110290
     91          1           0       -1.870169    4.905531    1.915112
     92          1           0       -2.009565    5.206775    0.199628
     93          1           0       -4.715609    2.937406    0.948293
     94          1           0       -4.843412    1.174703    0.390401
     95          1           0       -4.450448    1.828559   -1.793913
     96          1           0       -4.287193    3.590853   -1.244034
     97          1           0       -7.922515    2.546541   -0.529406
     98          1           0       -7.411938   -3.388907    0.378647
     99          1           0       -0.079852   -1.054898    4.775595
    100          1           0        6.635988   -3.339199   -2.252979
    101          1           0        6.406854   -0.869274   -0.862967
 ---------------------------------------------------------------------

 SCF Done:  E(RPBE1PBE) =  -3880.65700800     A.U. after    1 cycles

 The electronic state is 1-A.
 Alpha  occ. eigenvalues -- -256.30632 -89.00748 -30.07511 -25.90311 -25.90013
 Alpha  occ. eigenvalues --  -25.89904 -19.27720 -19.26508 -19.17595 -19.16828
 Alpha  occ. eigenvalues --  -14.44622 -14.39037 -14.36646 -14.36382 -14.36342
 Alpha  occ. eigenvalues --  -14.36337 -10.35788 -10.34614 -10.27776 -10.26041
 Alpha  occ. eigenvalues --  -10.24152 -10.24075 -10.24014 -10.23825 -10.23619
 Alpha  occ. eigenvalues --  -10.23615 -10.23578 -10.23512 -10.23442 -10.23310
 Alpha  occ. eigenvalues --  -10.23114 -10.23100 -10.23090 -10.23090 -10.22985
 Alpha  occ. eigenvalues --  -10.22914 -10.22694 -10.22665 -10.21918 -10.21757
 Alpha  occ. eigenvalues --  -10.21659 -10.21545 -10.21526 -10.21510 -10.21480
 Alpha  occ. eigenvalues --  -10.21455 -10.21324 -10.21269 -10.21194 -10.21154
 Alpha  occ. eigenvalues --  -10.21097 -10.21029 -10.20786 -10.20280 -10.20267
 Alpha  occ. eigenvalues --  -10.19161 -10.18643  -7.98699  -5.92356  -5.92050
 Alpha  occ. eigenvalues --   -5.91520  -3.41966  -2.17932  -2.17317  -2.17143
 Alpha  occ. eigenvalues --   -1.17766  -1.17448  -1.06343  -1.01809  -1.00989
 Alpha  occ. eigenvalues --   -0.97401  -0.96330  -0.95984  -0.94626  -0.90752
 Alpha  occ. eigenvalues --   -0.84569  -0.84155  -0.83830  -0.83725  -0.83178
 Alpha  occ. eigenvalues --   -0.81883  -0.81325  -0.81052  -0.80686  -0.79130
 Alpha  occ. eigenvalues --   -0.78441  -0.77776  -0.76778  -0.76166  -0.75746
 Alpha  occ. eigenvalues --   -0.74181  -0.72896  -0.72698  -0.71998  -0.71020
 Alpha  occ. eigenvalues --   -0.69886  -0.69275  -0.68907  -0.66541  -0.66223
 Alpha  occ. eigenvalues --   -0.65743  -0.65020  -0.64677  -0.64488  -0.62809
 Alpha  occ. eigenvalues --   -0.62189  -0.60461  -0.59158  -0.58917  -0.57784
 Alpha  occ. eigenvalues --   -0.56540  -0.55833  -0.54929  -0.54410  -0.53555
 Alpha  occ. eigenvalues --   -0.52962  -0.52345  -0.51849  -0.51581  -0.51398
 Alpha  occ. eigenvalues --   -0.50684  -0.50602  -0.49462  -0.49382  -0.49037
 Alpha  occ. eigenvalues --   -0.48826  -0.48636  -0.48328  -0.48030  -0.47875
 Alpha  occ. eigenvalues --   -0.47391  -0.46666  -0.46344  -0.46032  -0.45560
 Alpha  occ. eigenvalues --   -0.45374  -0.44926  -0.44580  -0.44249  -0.44079
 Alpha  occ. eigenvalues --   -0.43889  -0.43628  -0.43530  -0.43424  -0.43275
 Alpha  occ. eigenvalues --   -0.43186  -0.43088  -0.42922  -0.42774  -0.42552
 Alpha  occ. eigenvalues --   -0.42432  -0.41813  -0.41186  -0.41080  -0.40908
 Alpha  occ. eigenvalues --   -0.40435  -0.40258  -0.39973  -0.39865  -0.39636
 Alpha  occ. eigenvalues --   -0.39360  -0.39001  -0.38912  -0.38452  -0.38074
 Alpha  occ. eigenvalues --   -0.37935  -0.37715  -0.37587  -0.37283  -0.37198
 Alpha  occ. eigenvalues --   -0.36543  -0.36433  -0.36051  -0.35931  -0.35283
 Alpha  occ. eigenvalues --   -0.34904  -0.34711  -0.34118  -0.33741  -0.33265
 Alpha  occ. eigenvalues --   -0.32910  -0.32472  -0.32006  -0.31948  -0.31772
 Alpha  occ. eigenvalues --   -0.31554  -0.30714  -0.29822  -0.28990  -0.28538
 Alpha  occ. eigenvalues --   -0.28095  -0.27719  -0.27505  -0.27107  -0.25313
 Alpha  occ. eigenvalues --   -0.24670  -0.24314  -0.23217  -0.22708  -0.22132
 Alpha  occ. eigenvalues --   -0.19734  -0.18837  -0.18603  -0.18216  -0.17984
 Alpha virt. eigenvalues --   -0.07046  -0.06392  -0.01309   0.00501   0.00668
 Alpha virt. eigenvalues --    0.01083   0.01645   0.02223   0.02570   0.03178
 Alpha virt. eigenvalues --    0.03542   0.03700   0.04515   0.04555   0.04877

 Mulliken charges:
               1
     1  C   -0.375365
     2  C    0.149638
     3  N   -0.220323
     4  C   -0.192940
     5  C    0.014048
     6  N    0.062347
     7  C   -0.344878
     8  C   -0.146637
     9  S    0.027070
    10  C   -0.340988
    11  Fe  -0.366694
    12  C   -0.703113
    13  C   -0.544505
    14  C   -0.458158
    15  C   -0.514855
    16  N    0.047221
    17  C    0.274669
    18  C    0.027852
    19  C   -0.102688
    20  C    0.316253
    21  C   -0.425151
    22  C   -0.287194
    23  C   -0.143154
    24  C    0.246784
    25  O   -0.319108
    26  O   -0.404926
    27  N   -0.042912
    28  C    0.252881
    29  C   -0.046600
    30  C   -0.044299
    31  C    0.189522
    32  C   -0.398249
    33  C   -0.180470
    34  C   -0.335309
    35  N    0.042652
    36  C    0.172407
    37  C   -0.045484
    38  C    0.021890
    39  C    0.253644
    40  C   -0.394381
    41  C   -0.259342
    42  C   -0.271011
    43  N   -0.027688
    44  C    0.305231
    45  C   -0.087551
    46  C    0.112660
    47  C    0.221036
    48  C   -0.409568
    49  C   -0.352529
    50  C   -0.126886
    51  C    0.233807
    52  O   -0.376519
    53  O   -0.318126
    54  H    0.148534
    55  H    0.120977
    56  H    0.147230
    57  H    0.149191
    58  H    0.168129
    59  H    0.125067
    60  H    0.122898
    61  H    0.110750
    62  H    0.122335
    63  H    0.116242
    64  H    0.159438
    65  H    0.141533
    66  H    0.130114
    67  H    0.102973
    68  H    0.107428
    69  H    0.104834
    70  H    0.099687
    71  H    0.124811
    72  H    0.138999
    73  H    0.137502
    74  H    0.118794
    75  H    0.121055
    76  H    0.136355
    77  H    0.131613
    78  H    0.123201
    79  H    0.139480
    80  H    0.135497
    81  H    0.109355
    82  H    0.121528
    83  H    0.111375
    84  H    0.144613
    85  H    0.134905
    86  H    0.131212
    87  H    0.116910
    88  H    0.141638
    89  H    0.124918
    90  H    0.121530
    91  H    0.135825
    92  H    0.152894
    93  H    0.125885
    94  H    0.101582
    95  H    0.129573
    96  H    0.132446
    97  H    0.347478
    98  H    0.342360
    99  H    0.230303
   100  H    0.102259
   101  H    0.092739
 Sum of Mulliken charges =  -0.00000

 Dipole moment (field-independent basis, Debye):
    X=              1.2182    Y=             -2.5181    Z=              3.2667  Tot=              4.3007
 Quadrupole moment (field-independent basis, Debye-Ang):
   XX=           -305.8516   YY=           -319.7597   ZZ=           -317.4926
   XY=              0.2070   XZ=              0.4476   YZ=             17.3739

 Summary of Natural Population Analysis:

                                       Natural Population
                Natural  -----------------------------------------------
    Atom  No    Charge         Core      Valence    Rydberg      Total
 -----------------------------------------------------------------------
      C    1   -0.63808      1.99939     4.63231    0.00638     6.63808
      C    2    0.09860      1.99911     3.88314    0.01915     5.90140
      N    3   -0.48336      1.99937     5.46366    0.02033     7.48336
      C    4   -0.07018      1.99887     4.05246    0.01885     6.07018
      C    5    0.18913      1.99932     3.79154    0.02001     5.81087
      N    6   -0.32439      1.99936     5.27013    0.05491     7.32439
      C    7   -0.60863      1.99943     4.59759    0.01161     6.60863
      C    8   -0.55473      1.99939     4.53543    0.01990     6.55473
      S    9    0.58034      9.99862     5.37695    0.04409    15.41966
      C   10   -0.76324      1.99931     4.74476    0.01917     6.76324
     Fe   11   -0.06016     17.99100     8.01974    0.04943    26.06016
      C   12   -0.26642      1.99887     4.24956    0.01798     6.26642
      C   13   -0.25134      1.99890     4.23519    0.01724     6.25134
      C   14   -0.24313      1.99887     4.22647    0.01779     6.24313
      C   15   -0.22452      1.99885     4.20791    0.01776     6.22452
      N   16   -0.36136      1.99938     5.31650    0.04548     7.36136
      C   17    0.14052      1.99900     3.83963    0.02085     5.85948
      C   18   -0.04110      1.99875     4.02329    0.01906     6.04110
      C   19   -0.02131      1.99878     4.00586    0.01667     6.02131
      C   20    0.14763      1.99901     3.83188    0.02148     5.85237
      C   21   -0.63738      1.99940     4.63053    0.00745     6.63738
      C   22   -0.42613      1.99938     4.41253    0.01422     6.42613
      C   23   -0.49564      1.99928     4.47897    0.01739     6.49564
      C   24    0.76036      1.99953     3.20456    0.03555     5.23964
      O   25   -0.64534      1.99963     6.61945    0.02626     8.64534
      O   26   -0.62868      1.99981     6.60636    0.02251     8.62868
      N   27   -0.38840      1.99937     5.34048    0.04855     7.38840
      C   28    0.15017      1.99905     3.82959    0.02119     5.84983
      C   29   -0.03948      1.99878     4.02342    0.01728     6.03948
      C   30   -0.02913      1.99879     4.01057    0.01977     6.02913
      C   31    0.13103      1.99901     3.84866    0.02131     5.86897
      C   32   -0.63833      1.99940     4.63156    0.00736     6.63833
      C   33   -0.42673      1.99920     4.41050    0.01703     6.42673
      C   34   -0.59680      1.99927     4.58237    0.01516     6.59680
      N   35   -0.34219      1.99935     5.29423    0.04860     7.34219
      C   36    0.13967      1.99903     3.83981    0.02150     5.86033
      C   37   -0.00302      1.99881     3.98685    0.01736     6.00302
      C   38   -0.09152      1.99872     4.07083    0.02197     6.09152
      C   39    0.15817      1.99903     3.82140    0.02141     5.84183
      C   40   -0.64367      1.99940     4.63704    0.00722     6.64367
      C   41   -0.19197      1.99920     4.17423    0.01854     6.19197
      C   42   -0.39103      1.99925     4.37586    0.01592     6.39103
      N   43   -0.39537      1.99939     5.35160    0.04438     7.39537
      C   44    0.11760      1.99892     3.86239    0.02109     5.88240
      C   45   -0.01496      1.99916     3.99882    0.01698     6.01496
      C   46   -0.03184      1.99911     4.01509    0.01765     6.03184
      C   47    0.10838      1.99893     3.87081    0.02188     5.89162
      C   48   -0.64674      1.99937     4.63982    0.00756     6.64674
      C   49   -0.43479      1.99934     4.42135    0.01410     6.43479
      C   50   -0.48858      1.99929     4.47247    0.01682     6.48858
      C   51    0.76048      1.99956     3.20189    0.03808     5.23952
      O   52   -0.61781      1.99978     6.59332    0.02471     8.61781
      O   53   -0.65264      1.99959     6.62534    0.02771     8.65264
      H   54    0.23347      0.00000     0.76548    0.00106     0.76653
      H   55    0.21454      0.00000     0.78416    0.00130     0.78546
      H   56    0.22522      0.00000     0.77339    0.00139     0.77478
      H   57    0.23415      0.00000     0.76422    0.00163     0.76585
      H   58    0.22713      0.00000     0.77089    0.00198     0.77287
      H   59    0.21299      0.00000     0.78573    0.00128     0.78701
      H   60    0.23205      0.00000     0.76617    0.00178     0.76795
      H   61    0.20749      0.00000     0.79117    0.00134     0.79251
      H   62    0.22161      0.00000     0.77627    0.00212     0.77839
      H   63    0.21997      0.00000     0.77727    0.00276     0.78003
      H   64    0.25442      0.00000     0.74424    0.00134     0.74558
      H   65    0.21552      0.00000     0.78310    0.00138     0.78448
      H   66    0.21765      0.00000     0.78040    0.00195     0.78235
      H   67    0.20727      0.00000     0.79019    0.00254     0.79273
      H   68    0.21533      0.00000     0.78182    0.00285     0.78467
      H   69    0.21678      0.00000     0.78025    0.00297     0.78322
      H   70    0.21775      0.00000     0.77959    0.00266     0.78225
      H   71    0.21611      0.00000     0.78272    0.00118     0.78389
      H   72    0.21904      0.00000     0.77938    0.00158     0.78096
      H   73    0.21741      0.00000     0.78103    0.00156     0.78259
      H   74    0.22138      0.00000     0.77694    0.00167     0.77862
      H   75    0.22213      0.00000     0.77593    0.00194     0.77787
      H   76    0.24340      0.00000     0.75502    0.00158     0.75660
      H   77    0.24296      0.00000     0.75544    0.00160     0.75704
      H   78    0.21578      0.00000     0.78267    0.00155     0.78422
      H   79    0.22012      0.00000     0.77835    0.00153     0.77988
      H   80    0.21846      0.00000     0.77994    0.00160     0.78154
      H   81    0.20922      0.00000     0.78860    0.00218     0.79078
      H   82    0.21164      0.00000     0.78685    0.00151     0.78836
      H   83    0.20873      0.00000     0.78997    0.00130     0.79127
      H   84    0.22909      0.00000     0.76933    0.00158     0.77091
      H   85    0.21772      0.00000     0.78065    0.00162     0.78228
      H   86    0.21636      0.00000     0.78212    0.00152     0.78364
      H   87    0.20434      0.00000     0.79393    0.00173     0.79566
      H   88    0.19789      0.00000     0.80049    0.00163     0.80211
      H   89    0.19939      0.00000     0.79922    0.00139     0.80061
      H   90    0.21435      0.00000     0.78428    0.00137     0.78565
      H   91    0.22056      0.00000     0.77788    0.00157     0.77944
      H   92    0.22580      0.00000     0.77258    0.00162     0.77420
      H   93    0.22219      0.00000     0.77520    0.00261     0.77781
      H   94    0.21147      0.00000     0.78612    0.00241     0.78853
      H   95    0.24228      0.00000     0.75601    0.00172     0.75772
      H   96    0.24176      0.00000     0.75669    0.00154     0.75824
      H   97    0.51314      0.00000     0.48368    0.00319     0.48686
      H   98    0.51139      0.00000     0.48542    0.00318     0.48861
      H   99    0.41308      0.00000     0.58519    0.00174     0.58692
      H  100    0.20096      0.00000     0.79750    0.00154     0.79904
      H  101    0.20657      0.00000     0.79193    0.00150     0.79343
 =======================================================================
   * Total *   -0.00000    129.94871   278.77210    1.27919   410.00000

 Normal termination of Gaussian 16 at Sun Sep 18 17:27:13 2022.
