 Gaussian 16, Revision A.03,
 Gaussian 16:  ES64L-G16RevA.03 25-Dec-2016

 ----------------------------------------------------------------------
 # PBE1PBE/def2TZVP empiricaldispersion=GD3BJ int=(grid=ultrafine) geom
 =check guess=read pop=nbo
 ----------------------------------------------------------------------

 -------------
 451c_II_S_nbo
 -------------
 Structure from the checkpoint file:  "451c_II_S.chk"
 Charge =  0 Multiplicity = 1

                         Standard orientation:
 ---------------------------------------------------------------------
 Center     Atomic      Atomic             Coordinates (Angstroms)
 Number     Number       Type             X           Y           Z
 ---------------------------------------------------------------------
      1          6           0        3.279414   -0.858909    5.033445
      2          6           0        2.263317   -0.513617    3.957345
      3          7           0        0.931154   -0.455993    4.196525
      4          6           0        2.466145   -0.341152    2.599547
      5          6           0        0.302271   -0.249437    3.010033
      6          7           0        1.243531   -0.171292    2.023571
      7          6           0       -0.815655    2.314888   -2.804885
      8          6           0        0.513037    1.571128   -2.986873
      9         16           0        0.567587   -0.084816   -2.243525
     10          6           0       -0.961251   -0.904624   -2.748773
     11          6           0       -2.521303   -0.043649    0.543992
     12          6           0        0.821877   -3.476345    0.053321
     13          6           0        4.165297   -0.087634   -0.748767
     14          6           0        0.947664    3.315032    0.370128
     15          6           0       -1.910592   -1.277372    0.448798
     16          6           0       -2.549586   -2.494156    0.566059
     17          6           0       -1.578979   -3.480980    0.477237
     18          6           0       -0.383977   -2.841611    0.253451
     19          6           0       -1.765758   -4.981878    0.570674
     20          6           0       -4.030032   -2.689748    0.716789
     21          6           0       -4.647874   -2.624878   -0.660418
     22          6           0       -6.150766   -2.810787   -0.575235
     23          8           0       -6.653495   -3.177065    0.483308
     24          8           0       -6.731009   -3.151437   -1.677202
     25          6           0        2.034253   -2.864713   -0.187073
     26          6           0        3.225804   -3.532955   -0.461812
     27          6           0        4.178005   -2.560248   -0.785988
     28          6           0        3.556855   -1.317575   -0.599608
     29          6           0        3.413613   -5.034779   -0.468515
     30          6           0        5.596933   -2.771567   -1.275871
     31          6           0        5.668621   -3.389542   -2.669332
     32          6           0        3.572926    1.147815   -0.535748
     33          6           0        4.233638    2.369899   -0.563091
     34          6           0        3.340337    3.321715   -0.080280
     35          6           0        2.126328    2.690284    0.044791
     36          6           0        5.697770    2.578058   -0.904999
     37          6           0        3.622486    4.767608    0.305323
     38          6           0        4.082238    5.619372   -0.872953
     39          6           0       -0.275548    2.700588    0.477915
     40          6           0       -1.474995    3.369151    0.699780
     41          6           0       -2.482507    2.414148    0.660263
     42          6           0       -1.865616    1.173353    0.511090
     43          6           0       -1.647875    4.861472    0.900252
     44          6           0       -3.968433    2.652376    0.775108
     45          6           0       -4.669282    2.639124   -0.573818
     46          6           0       -6.177727    2.777348   -0.376329
     47          8           0       -6.926245    2.287789   -1.226566
     48          8           0       -6.675016    3.662972    0.463755
     49          7           0       -0.592729   -1.498170    0.255888
     50          7           0        2.252575   -1.521120   -0.253342
     51          7           0        2.284836    1.360106   -0.166639
     52          7           0       -0.516975    1.354414    0.356085
     53         26           0        0.858666   -0.051523    0.091682
     54          1           0        4.032987   -0.100123    5.069080
     55          1           0        2.788017   -0.918391    5.982071
     56          1           0        3.732629   -1.801320    4.806822
     57          1           0        3.409672   -0.341204    2.094911
     58          1           0       -0.755142   -0.162415    2.871454
     59          1           0       -0.864810    3.131286   -3.494796
     60          1           0       -1.628297    1.643438   -2.988374
     61          1           0       -0.880934    2.688887   -1.804503
     62          1           0        1.241560    2.148850   -2.457355
     63          1           0        0.615232    1.417401   -4.040830
     64          1           0       -1.339888   -1.885677   -2.551115
     65          1           0       -0.253990   -1.485470   -3.303119
     66          1           0       -1.141785   -0.819347   -1.697566
     67          1           0       -3.585742   -0.027435    0.651719
     68          1           0        0.817569   -4.545786    0.087636
     69          1           0        5.189753   -0.087549   -1.057620
     70          1           0        0.985525    4.368254    0.555030
     71          1           0       -0.829382   -5.443964    0.804292
     72          1           0       -2.124175   -5.355668   -0.365658
     73          1           0       -2.475601   -5.205791    1.339365
     74          1           0       -4.403726   -1.853238    1.269511
     75          1           0       -4.180857   -3.683636    1.083311
     76          1           0       -4.266994   -3.463041   -1.205682
     77          1           0       -4.483166   -1.631542   -1.022434
     78          1           0        3.630719   -5.362636   -1.463641
     79          1           0        4.225324   -5.295606    0.178010
     80          1           0        2.517569   -5.507816   -0.124654
     81          1           0        6.033121   -3.489363   -0.612992
     82          1           0        6.025906   -1.795348   -1.364629
     83          1           0        5.830646   -2.618653   -3.393471
     84          1           0        6.476313   -4.090306   -2.707602
     85          1           0        4.749171   -3.892971   -2.883972
     86          1           0        5.838276    3.569001   -1.283402
     87          1           0        6.291947    2.444651   -0.025194
     88          1           0        5.995208    1.867259   -1.647424
     89          1           0        4.447073    4.736077    0.986470
     90          1           0        2.685259    5.178009    0.618495
     91          1           0        3.735100    6.623282   -0.744265
     92          1           0        5.151166    5.614958   -0.920638
     93          1           0        3.683057    5.217562   -1.780754
     94          1           0       -2.542829    5.185681    0.411534
     95          1           0       -1.715297    5.075349    1.946488
     96          1           0       -0.807548    5.376937    0.484263
     97          1           0       -4.393709    1.888978    1.392574
     98          1           0       -4.502184    1.670912   -0.997544
     99          1           0       -4.346190    3.514965   -1.096709
    100          1           0       -7.218388   -2.579392    0.978567
    101          1           0       -7.870027    2.459973   -1.191511
    102          1           0        0.488891   -0.549029    5.088572
    103          1           0       -4.130811    3.602745    1.239147
 ---------------------------------------------------------------------

 SCF Done:  E(RPBE1PBE) =  -3881.65417403     A.U. after    1 cycles

 The electronic state is 1-A.
 Alpha  occ. eigenvalues -- -256.30688 -89.03710 -30.07573 -25.90361 -25.90051
 Alpha  occ. eigenvalues --  -25.90001 -19.27708 -19.26166 -19.17515 -19.17094
 Alpha  occ. eigenvalues --  -14.45691 -14.40087 -14.36383 -14.36248 -14.35934
 Alpha  occ. eigenvalues --  -14.35716 -10.35858 -10.35057 -10.28597 -10.26648
 Alpha  occ. eigenvalues --  -10.23859 -10.23841 -10.23840 -10.23695 -10.23439
 Alpha  occ. eigenvalues --  -10.23438 -10.23430 -10.23395 -10.23390 -10.23372
 Alpha  occ. eigenvalues --  -10.23025 -10.22811 -10.22649 -10.22394 -10.22296
 Alpha  occ. eigenvalues --  -10.22094 -10.21931 -10.21814 -10.21701 -10.21678
 Alpha  occ. eigenvalues --  -10.21623 -10.21615 -10.21517 -10.21454 -10.21277
 Alpha  occ. eigenvalues --  -10.21259 -10.21250 -10.21163 -10.21055 -10.21054
 Alpha  occ. eigenvalues --  -10.20954 -10.20837 -10.20764 -10.19921 -10.19760
 Alpha  occ. eigenvalues --  -10.18404 -10.18066  -8.01178  -5.94993  -5.94494
 Alpha  occ. eigenvalues --   -5.93914  -3.42044  -2.18009  -2.17359  -2.17277
 Alpha  occ. eigenvalues --   -1.18310  -1.18010  -1.05955  -1.00279  -0.98984
 Alpha  occ. eigenvalues --   -0.98826  -0.98153  -0.97254  -0.96645  -0.91438
 Alpha  occ. eigenvalues --   -0.85016  -0.84628  -0.84264  -0.83698  -0.82492
 Alpha  occ. eigenvalues --   -0.82145  -0.81661  -0.81436  -0.80870  -0.79560
 Alpha  occ. eigenvalues --   -0.79013  -0.77703  -0.77320  -0.76824  -0.75930
 Alpha  occ. eigenvalues --   -0.74792  -0.73362  -0.72425  -0.72255  -0.71176
 Alpha  occ. eigenvalues --   -0.70529  -0.69902  -0.69702  -0.67537  -0.67032
 Alpha  occ. eigenvalues --   -0.66530  -0.65713  -0.65542  -0.64538  -0.63731
 Alpha  occ. eigenvalues --   -0.63552  -0.62363  -0.59506  -0.58881  -0.58619
 Alpha  occ. eigenvalues --   -0.57084  -0.56328  -0.55628  -0.55264  -0.54070
 Alpha  occ. eigenvalues --   -0.53161  -0.52526  -0.52415  -0.52193  -0.51715
 Alpha  occ. eigenvalues --   -0.51238  -0.50822  -0.50456  -0.50042  -0.49408
 Alpha  occ. eigenvalues --   -0.48922  -0.48518  -0.48183  -0.48000  -0.47911
 Alpha  occ. eigenvalues --   -0.47538  -0.47268  -0.47214  -0.47103  -0.46718
 Alpha  occ. eigenvalues --   -0.45598  -0.45241  -0.44945  -0.44728  -0.44534
 Alpha  occ. eigenvalues --   -0.44266  -0.43891  -0.43835  -0.43503  -0.43346
 Alpha  occ. eigenvalues --   -0.43202  -0.43112  -0.42903  -0.42667  -0.42435
 Alpha  occ. eigenvalues --   -0.42155  -0.41777  -0.41509  -0.41358  -0.41238
 Alpha  occ. eigenvalues --   -0.40994  -0.40389  -0.40298  -0.39908  -0.39799
 Alpha  occ. eigenvalues --   -0.39356  -0.39036  -0.38901  -0.38569  -0.38291
 Alpha  occ. eigenvalues --   -0.38102  -0.37693  -0.37386  -0.37299  -0.37100
 Alpha  occ. eigenvalues --   -0.36785  -0.36636  -0.36020  -0.35762  -0.35563
 Alpha  occ. eigenvalues --   -0.35432  -0.35065  -0.34809  -0.34119  -0.33890
 Alpha  occ. eigenvalues --   -0.33670  -0.33519  -0.33162  -0.33032  -0.32574
 Alpha  occ. eigenvalues --   -0.31987  -0.30843  -0.30795  -0.29779  -0.29228
 Alpha  occ. eigenvalues --   -0.28579  -0.28380  -0.27119  -0.26902  -0.25348
 Alpha  occ. eigenvalues --   -0.24818  -0.23892  -0.23101  -0.22681  -0.22431
 Alpha  occ. eigenvalues --   -0.20105  -0.20014  -0.19702  -0.18944  -0.18230
 Alpha  occ. eigenvalues --   -0.17873
 Alpha virt. eigenvalues --   -0.07638  -0.07210  -0.03290  -0.02488  -0.01687
 Alpha virt. eigenvalues --   -0.01151   0.00793   0.01282   0.01852   0.03336
 Alpha virt. eigenvalues --    0.03541   0.03612   0.03828   0.04376   0.04430

 Mulliken charges:
               1
     1  C   -0.358353
     2  C    0.122778
     3  N   -0.212314
     4  C   -0.188084
     5  C   -0.025800
     6  N    0.088330
     7  C   -0.376250
     8  C   -0.089927
     9  S    0.028947
    10  C   -0.652928
    11  C   -0.569272
    12  C   -0.532081
    13  C   -0.494791
    14  C   -0.499342
    15  C    0.125072
    16  C    0.124261
    17  C   -0.101488
    18  C    0.287892
    19  C   -0.405510
    20  C   -0.294681
    21  C   -0.168642
    22  C    0.240040
    23  O   -0.311317
    24  O   -0.362553
    25  C    0.316265
    26  C   -0.114839
    27  C   -0.063033
    28  C    0.256028
    29  C   -0.377208
    30  C   -0.160301
    31  C   -0.357030
    32  C    0.215306
    33  C   -0.046183
    34  C   -0.121140
    35  C    0.290844
    36  C   -0.400033
    37  C   -0.134169
    38  C   -0.380874
    39  C    0.181356
    40  C   -0.014562
    41  C    0.063440
    42  C    0.270296
    43  C   -0.412269
    44  C   -0.473397
    45  C   -0.067468
    46  C    0.223763
    47  O   -0.286342
    48  O   -0.444832
    49  N   -0.080130
    50  N   -0.006398
    51  N    0.016889
    52  N    0.086189
    53  Fe  -0.398907
    54  H    0.147377
    55  H    0.114139
    56  H    0.147909
    57  H    0.158815
    58  H    0.177721
    59  H    0.107901
    60  H    0.150280
    61  H    0.115549
    62  H    0.132676
    63  H    0.109729
    64  H    0.244371
    65  H    0.248146
    66  H    0.194519
    67  H    0.091949
    68  H    0.076651
    69  H    0.086859
    70  H    0.074807
    71  H    0.125708
    72  H    0.144187
    73  H    0.134541
    74  H    0.094175
    75  H    0.110491
    76  H    0.128770
    77  H    0.135657
    78  H    0.132422
    79  H    0.129040
    80  H    0.117521
    81  H    0.102124
    82  H    0.096622
    83  H    0.115762
    84  H    0.112954
    85  H    0.127247
    86  H    0.134704
    87  H    0.135440
    88  H    0.128380
    89  H    0.113093
    90  H    0.095370
    91  H    0.119361
    92  H    0.112517
    93  H    0.133786
    94  H    0.138113
    95  H    0.145749
    96  H    0.123677
    97  H    0.119825
    98  H    0.134129
    99  H    0.135307
   100  H    0.352992
   101  H    0.349244
   102  H    0.234515
   103  H    0.151933
 Sum of Mulliken charges =  -0.00000

 Dipole moment (field-independent basis, Debye):
    X=              3.7818    Y=             -0.9161    Z=              6.9287  Tot=              7.9466
 Quadrupole moment (field-independent basis, Debye-Ang):
   XX=           -324.3108   YY=           -326.8523   ZZ=           -308.7658
   XY=             -1.7304   XZ=            -10.5218   YZ=            -18.4160

 Summary of Natural Population Analysis:

                                       Natural Population
                Natural  -----------------------------------------------
    Atom  No    Charge         Core      Valence    Rydberg      Total
 -----------------------------------------------------------------------
      C    1   -0.63652      1.99940     4.63093    0.00619     6.63652
      C    2    0.10423      1.99920     3.87697    0.01961     5.89577
      N    3   -0.48133      1.99937     5.46204    0.01992     7.48133
      C    4   -0.06758      1.99898     4.04958    0.01902     6.06758
      C    5    0.16292      1.99939     3.81862    0.01906     5.83708
      N    6   -0.31387      1.99937     5.26007    0.05443     7.31387
      C    7   -0.62651      1.99944     4.61564    0.01144     6.62651
      C    8   -0.54213      1.99936     4.52148    0.02129     6.54213
      S    9    0.65140      9.99839     5.29687    0.05333    15.34860
      C   10   -1.41541      1.99901     5.34499    0.07142     7.41541
      C   11   -0.24171      1.99897     4.22504    0.01769     6.24171
      C   12   -0.20072      1.99899     4.18510    0.01664     6.20072
      C   13   -0.20462      1.99899     4.18924    0.01639     6.20462
      C   14   -0.19923      1.99895     4.18378    0.01650     6.19923
      C   15    0.10685      1.99891     3.87209    0.02215     5.89315
      C   16   -0.03877      1.99888     4.01993    0.01996     6.03877
      C   17   -0.02461      1.99884     4.00788    0.01789     6.02461
      C   18    0.11517      1.99887     3.86341    0.02256     5.88483
      C   19   -0.63617      1.99941     4.62927    0.00749     6.63617
      C   20   -0.43059      1.99936     4.41590    0.01533     6.43059
      C   21   -0.49750      1.99926     4.47963    0.01861     6.49750
      C   22    0.74204      1.99949     3.22265    0.03581     5.25796
      O   23   -0.67247      1.99955     6.64019    0.03273     8.67247
      O   24   -0.56469      1.99982     6.54409    0.02078     8.56469
      C   25    0.13101      1.99892     3.84803    0.02203     5.86899
      C   26   -0.03196      1.99891     4.01597    0.01708     6.03196
      C   27   -0.01999      1.99894     4.00201    0.01905     6.01999
      C   28    0.12922      1.99895     3.85019    0.02165     5.87078
      C   29   -0.63417      1.99940     4.62728    0.00749     6.63417
      C   30   -0.43154      1.99939     4.41749    0.01466     6.43154
      C   31   -0.59783      1.99944     4.59204    0.00634     6.59783
      C   32    0.12428      1.99893     3.85522    0.02157     5.87572
      C   33   -0.03015      1.99888     4.01403    0.01724     6.03015
      C   34   -0.02228      1.99885     4.00442    0.01901     6.02228
      C   35    0.11819      1.99887     3.86117    0.02177     5.88181
      C   36   -0.63898      1.99941     4.63221    0.00737     6.63898
      C   37   -0.42443      1.99940     4.41173    0.01331     6.42443
      C   38   -0.60171      1.99945     4.59581    0.00645     6.60171
      C   39    0.11786      1.99890     3.86056    0.02267     5.88214
      C   40   -0.01540      1.99887     3.99920    0.01733     6.01540
      C   41   -0.04155      1.99888     4.02351    0.01916     6.04155
      C   42    0.12747      1.99892     3.85236    0.02125     5.87253
      C   43   -0.63690      1.99940     4.62976    0.00774     6.63690
      C   44   -0.41793      1.99934     4.40358    0.01502     6.41793
      C   45   -0.49111      1.99926     4.47387    0.01798     6.49111
      C   46    0.75463      1.99955     3.20760    0.03822     5.24537
      O   47   -0.62531      1.99959     6.59703    0.02869     8.62531
      O   48   -0.65373      1.99984     6.64260    0.01128     8.65373
      N   49   -0.39624      1.99935     5.34915    0.04773     7.39624
      N   50   -0.36837      1.99935     5.32158    0.04744     7.36837
      N   51   -0.36920      1.99933     5.32334    0.04653     7.36920
      N   52   -0.36675      1.99935     5.32143    0.04597     7.36675
     Fe   53   -0.07728     17.99105     8.03634    0.04989    26.07728
      H   54    0.22949      0.00000     0.76933    0.00118     0.77051
      H   55    0.21124      0.00000     0.78753    0.00123     0.78876
      H   56    0.22920      0.00000     0.76955    0.00125     0.77080
      H   57    0.23307      0.00000     0.76540    0.00152     0.76693
      H   58    0.22604      0.00000     0.77204    0.00192     0.77396
      H   59    0.20533      0.00000     0.79354    0.00113     0.79467
      H   60    0.23051      0.00000     0.76761    0.00188     0.76949
      H   61    0.21449      0.00000     0.78360    0.00190     0.78551
      H   62    0.24737      0.00000     0.75059    0.00204     0.75263
      H   63    0.21835      0.00000     0.77959    0.00206     0.78165
      H   64    0.41129      0.00000     0.58690    0.00181     0.58871
      H   65    0.39239      0.00000     0.60534    0.00227     0.60761
      H   66    0.41962      0.00000     0.57553    0.00485     0.58038
      H   67    0.20588      0.00000     0.79165    0.00247     0.79412
      H   68    0.20675      0.00000     0.79005    0.00320     0.79325
      H   69    0.20860      0.00000     0.78781    0.00359     0.79140
      H   70    0.20781      0.00000     0.78856    0.00363     0.79219
      H   71    0.21706      0.00000     0.78159    0.00135     0.78294
      H   72    0.22034      0.00000     0.77802    0.00164     0.77966
      H   73    0.21840      0.00000     0.77995    0.00165     0.78160
      H   74    0.20527      0.00000     0.79198    0.00275     0.79473
      H   75    0.22557      0.00000     0.77260    0.00183     0.77443
      H   76    0.24610      0.00000     0.75229    0.00161     0.75390
      H   77    0.23707      0.00000     0.76126    0.00167     0.76293
      H   78    0.21922      0.00000     0.77895    0.00183     0.78078
      H   79    0.21815      0.00000     0.78001    0.00184     0.78185
      H   80    0.21209      0.00000     0.78670    0.00121     0.78791
      H   81    0.21696      0.00000     0.78094    0.00211     0.78304
      H   82    0.21387      0.00000     0.78454    0.00159     0.78613
      H   83    0.20649      0.00000     0.79227    0.00124     0.79351
      H   84    0.20440      0.00000     0.79431    0.00129     0.79560
      H   85    0.20866      0.00000     0.78984    0.00150     0.79134
      H   86    0.22120      0.00000     0.77722    0.00158     0.77880
      H   87    0.21706      0.00000     0.78113    0.00181     0.78294
      H   88    0.21681      0.00000     0.78184    0.00135     0.78319
      H   89    0.21814      0.00000     0.77961    0.00226     0.78186
      H   90    0.21132      0.00000     0.78709    0.00159     0.78868
      H   91    0.20681      0.00000     0.79195    0.00124     0.79319
      H   92    0.20068      0.00000     0.79790    0.00143     0.79932
      H   93    0.21123      0.00000     0.78731    0.00146     0.78877
      H   94    0.22128      0.00000     0.77729    0.00142     0.77872
      H   95    0.22230      0.00000     0.77604    0.00165     0.77770
      H   96    0.21545      0.00000     0.78320    0.00135     0.78455
      H   97    0.20793      0.00000     0.78975    0.00231     0.79207
      H   98    0.22773      0.00000     0.77048    0.00179     0.77227
      H   99    0.25080      0.00000     0.74766    0.00154     0.74920
      H  100    0.51593      0.00000     0.48165    0.00242     0.48407
      H  101    0.51368      0.00000     0.48315    0.00317     0.48632
      H  102    0.41823      0.00000     0.58004    0.00174     0.58177
      H  103    0.23828      0.00000     0.76026    0.00146     0.76172
 =======================================================================
   * Total *   -0.00000    129.94892   280.72833    1.32275   412.00000

 Normal termination of Gaussian 16 at Mon Sep 19 18:05:13 2022.
