 Gaussian 16, Revision A.03,
 Gaussian 16:  ES64L-G16RevA.03 25-Dec-2016

 ----------------------------------------------------------------------
 # PBE1PBE/def2TZVP empiricaldispersion=GD3BJ int=(grid=ultrafine) geom
 =check pop=nbo
 ----------------------------------------------------------------------

 ---------
 451c_II_Q
 ---------
 Structure from the checkpoint file:  "451c_II_Q.chk"
 Charge =  0 Multiplicity = 5

                         Standard orientation:
 ---------------------------------------------------------------------
 Center     Atomic      Atomic             Coordinates (Angstroms)
 Number     Number       Type             X           Y           Z
 ---------------------------------------------------------------------
      1          6           0        3.279414   -0.858909    5.033445
      2          6           0        2.263317   -0.513617    3.957345
      3          7           0        0.931154   -0.455993    4.196525
      4          6           0        2.466145   -0.341152    2.599547
      5          6           0        0.302271   -0.249437    3.010033
      6          7           0        1.243531   -0.171292    2.023571
      7          6           0       -0.815655    2.314888   -2.804885
      8          6           0        0.513037    1.571128   -2.986873
      9         16           0        0.567587   -0.084816   -2.243525
     10          6           0       -0.961251   -0.904624   -2.748773
     11          6           0       -2.521303   -0.043649    0.543992
     12          6           0        0.821877   -3.476345    0.053321
     13          6           0        4.165297   -0.087634   -0.748767
     14          6           0        0.947664    3.315032    0.370128
     15          6           0       -1.910592   -1.277372    0.448798
     16          6           0       -2.549586   -2.494156    0.566059
     17          6           0       -1.578979   -3.480980    0.477237
     18          6           0       -0.383977   -2.841611    0.253451
     19          6           0       -1.765758   -4.981878    0.570674
     20          6           0       -4.030032   -2.689748    0.716789
     21          6           0       -4.647874   -2.624878   -0.660418
     22          6           0       -6.150766   -2.810787   -0.575235
     23          8           0       -6.653495   -3.177065    0.483308
     24          8           0       -6.731009   -3.151437   -1.677202
     25          6           0        2.034253   -2.864713   -0.187073
     26          6           0        3.225804   -3.532955   -0.461812
     27          6           0        4.178005   -2.560248   -0.785988
     28          6           0        3.556855   -1.317575   -0.599608
     29          6           0        3.413613   -5.034779   -0.468515
     30          6           0        5.596933   -2.771567   -1.275871
     31          6           0        5.668621   -3.389542   -2.669332
     32          6           0        3.572926    1.147815   -0.535748
     33          6           0        4.233638    2.369899   -0.563091
     34          6           0        3.340337    3.321715   -0.080280
     35          6           0        2.126328    2.690284    0.044791
     36          6           0        5.697770    2.578058   -0.904999
     37          6           0        3.622486    4.767608    0.305323
     38          6           0        4.082238    5.619372   -0.872953
     39          6           0       -0.275548    2.700588    0.477915
     40          6           0       -1.474995    3.369151    0.699780
     41          6           0       -2.482507    2.414148    0.660263
     42          6           0       -1.865616    1.173353    0.511090
     43          6           0       -1.647875    4.861472    0.900252
     44          6           0       -3.968433    2.652376    0.775108
     45          6           0       -4.669282    2.639124   -0.573818
     46          6           0       -6.177727    2.777348   -0.376329
     47          8           0       -6.926245    2.287789   -1.226566
     48          8           0       -6.675016    3.662972    0.463755
     49          7           0       -0.592729   -1.498170    0.255888
     50          7           0        2.252575   -1.521120   -0.253342
     51          7           0        2.284836    1.360106   -0.166639
     52          7           0       -0.516975    1.354414    0.356085
     53         26           0        0.858666   -0.051523    0.091682
     54          1           0        4.032987   -0.100123    5.069080
     55          1           0        2.788017   -0.918391    5.982071
     56          1           0        3.732629   -1.801320    4.806822
     57          1           0        3.409672   -0.341204    2.094911
     58          1           0       -0.755142   -0.162415    2.871454
     59          1           0       -0.864810    3.131286   -3.494796
     60          1           0       -1.628297    1.643438   -2.988374
     61          1           0       -0.880934    2.688887   -1.804503
     62          1           0        1.241560    2.148850   -2.457355
     63          1           0        0.615232    1.417401   -4.040830
     64          1           0       -1.339888   -1.885677   -2.551115
     65          1           0       -0.253990   -1.485470   -3.303119
     66          1           0       -1.141785   -0.819347   -1.697566
     67          1           0       -3.585742   -0.027435    0.651719
     68          1           0        0.817569   -4.545786    0.087636
     69          1           0        5.189753   -0.087549   -1.057620
     70          1           0        0.985525    4.368254    0.555030
     71          1           0       -0.829382   -5.443964    0.804292
     72          1           0       -2.124175   -5.355668   -0.365658
     73          1           0       -2.475601   -5.205791    1.339365
     74          1           0       -4.403726   -1.853238    1.269511
     75          1           0       -4.180857   -3.683636    1.083311
     76          1           0       -4.266994   -3.463041   -1.205682
     77          1           0       -4.483166   -1.631542   -1.022434
     78          1           0        3.630719   -5.362636   -1.463641
     79          1           0        4.225324   -5.295606    0.178010
     80          1           0        2.517569   -5.507816   -0.124654
     81          1           0        6.033121   -3.489363   -0.612992
     82          1           0        6.025906   -1.795348   -1.364629
     83          1           0        5.830646   -2.618653   -3.393471
     84          1           0        6.476313   -4.090306   -2.707602
     85          1           0        4.749171   -3.892971   -2.883972
     86          1           0        5.838276    3.569001   -1.283402
     87          1           0        6.291947    2.444651   -0.025194
     88          1           0        5.995208    1.867259   -1.647424
     89          1           0        4.447073    4.736077    0.986470
     90          1           0        2.685259    5.178009    0.618495
     91          1           0        3.735100    6.623282   -0.744265
     92          1           0        5.151166    5.614958   -0.920638
     93          1           0        3.683057    5.217562   -1.780754
     94          1           0       -2.542829    5.185681    0.411534
     95          1           0       -1.715297    5.075349    1.946488
     96          1           0       -0.807548    5.376937    0.484263
     97          1           0       -4.393709    1.888978    1.392574
     98          1           0       -4.502184    1.670912   -0.997544
     99          1           0       -4.346190    3.514965   -1.096709
    100          1           0       -7.218388   -2.579392    0.978567
    101          1           0       -7.870027    2.459973   -1.191511
    102          1           0        0.488891   -0.549029    5.088572
    103          1           0       -4.130811    3.602745    1.239147
 ---------------------------------------------------------------------

 SCF Done:  E(UPBE1PBE) =  -3881.63189075     A.U. after   68 cycles

 Alpha virt. eigenvalues --    1.06051   1.06295   1.06646   1.06919   1.07166
 Alpha virt. eigenvalues --    1.07274   1.07662   1.07945   1.08150   1.08239
 Alpha virt. eigenvalues --    1.08724   1.09179   1.09326   1.09859   1.10159

  Beta  occ. eigenvalues -- -256.32582 -89.02609 -30.05451 -25.89102 -25.88466
  Beta  occ. eigenvalues --  -25.88344 -19.27757 -19.26179 -19.17527 -19.17150
  Beta  occ. eigenvalues --  -14.45731 -14.38958 -14.35315 -14.35251 -14.35000
  Beta  occ. eigenvalues --  -14.34691 -10.35921 -10.35072 -10.28698 -10.26673
  Beta  occ. eigenvalues --  -10.23933 -10.23919 -10.23861 -10.23777 -10.23634
  Beta  occ. eigenvalues --  -10.23575 -10.23551 -10.23439 -10.23384 -10.23350
  Beta  occ. eigenvalues --  -10.23311 -10.22834 -10.22414 -10.22413 -10.22326
  Beta  occ. eigenvalues --  -10.22203 -10.21987 -10.21672 -10.21662 -10.21602
  Beta  occ. eigenvalues --  -10.21582 -10.21547 -10.21527 -10.21509 -10.21458
  Beta  occ. eigenvalues --  -10.21369 -10.21341 -10.21262 -10.21202 -10.21079
  Beta  occ. eigenvalues --  -10.20938 -10.20908 -10.20712 -10.19904 -10.19825
  Beta  occ. eigenvalues --  -10.18185 -10.17931  -8.00257  -5.94087  -5.93566
  Beta  occ. eigenvalues --   -5.92931  -3.36266  -2.11222  -2.10986  -2.10799
  Beta  occ. eigenvalues --   -1.18359  -1.18023  -1.05921  -1.00290  -0.98925
  Beta  occ. eigenvalues --   -0.98876  -0.98116  -0.97241  -0.96586  -0.91354
  Beta  occ. eigenvalues --   -0.85042  -0.84422  -0.84234  -0.83751  -0.82526
  Beta  occ. eigenvalues --   -0.82208  -0.81704  -0.81492  -0.80891  -0.79617
  Beta  occ. eigenvalues --   -0.79038  -0.77751  -0.77089  -0.76858  -0.75974
  Beta  occ. eigenvalues --   -0.74836  -0.73394  -0.72466  -0.72302  -0.71215
  Beta  occ. eigenvalues --   -0.70603  -0.69923  -0.69733  -0.67314  -0.67043
  Beta  occ. eigenvalues --   -0.66597  -0.65741  -0.65566  -0.64625  -0.63747
  Beta  occ. eigenvalues --   -0.63613  -0.62412  -0.59562  -0.58658  -0.58603
  Beta  occ. eigenvalues --   -0.57142  -0.56396  -0.55684  -0.55328  -0.54116
  Beta  occ. eigenvalues --   -0.53240  -0.52570  -0.52444  -0.52206  -0.51738
  Beta  occ. eigenvalues --   -0.51292  -0.50877  -0.50501  -0.49881  -0.49450
  Beta  occ. eigenvalues --   -0.48953  -0.48571  -0.48145  -0.48056  -0.47938
  Beta  occ. eigenvalues --   -0.47555  -0.47291  -0.47235  -0.47121  -0.46798
  Beta  occ. eigenvalues --   -0.45649  -0.45274  -0.44945  -0.44779  -0.44569
  Beta  occ. eigenvalues --   -0.44285  -0.43897  -0.43840  -0.43521  -0.43341
  Beta  occ. eigenvalues --   -0.43210  -0.43042  -0.42893  -0.42682  -0.42443
  Beta  occ. eigenvalues --   -0.42091  -0.41804  -0.41504  -0.41397  -0.41250
  Beta  occ. eigenvalues --   -0.40997  -0.40393  -0.40283  -0.39923  -0.39814
  Beta  occ. eigenvalues --   -0.39378  -0.39065  -0.38952  -0.38579  -0.38331
  Beta  occ. eigenvalues --   -0.38138  -0.37780  -0.37410  -0.37315  -0.37123
  Beta  occ. eigenvalues --   -0.36840  -0.36610  -0.36039  -0.35798  -0.35610
  Beta  occ. eigenvalues --   -0.35429  -0.34984  -0.34835  -0.34133  -0.33870
  Beta  occ. eigenvalues --   -0.33682  -0.33523  -0.33213  -0.32964  -0.32489
  Beta  occ. eigenvalues --   -0.32002  -0.30873  -0.30841  -0.29994  -0.29403
  Beta  occ. eigenvalues --   -0.28722  -0.28514  -0.27170  -0.26905  -0.24857
  Beta  occ. eigenvalues --   -0.24454  -0.23555  -0.22901  -0.22421  -0.22350
  Beta  occ. eigenvalues --   -0.20241  -0.19614  -0.19071  -0.14337
  Beta virt. eigenvalues --   -0.08307  -0.06768  -0.03311  -0.02304  -0.01891
  Beta virt. eigenvalues --   -0.01211  -0.00274   0.00108   0.00777   0.01590
  Beta virt. eigenvalues --    0.01976   0.03326   0.03578   0.03790   0.04311

 Mulliken charges and spin densities:
               1          2
     1  C   -0.358754   0.000856
     2  C    0.120675   0.009419
     3  N   -0.211523  -0.000504
     4  C   -0.185929  -0.006394
     5  C   -0.024758  -0.019529
     6  N    0.058347   0.039458
     7  C   -0.373186  -0.000115
     8  C   -0.093826   0.010221
     9  S   -0.004851   0.046895
    10  C   -0.653934   0.007207
    11  C   -0.564825   0.000752
    12  C   -0.549840  -0.063749
    13  C   -0.495568   0.007824
    14  C   -0.520041  -0.062977
    15  C    0.140083  -0.023240
    16  C    0.124692   0.023468
    17  C   -0.105011  -0.026981
    18  C    0.297256   0.024264
    19  C   -0.405954   0.002482
    20  C   -0.294242  -0.001087
    21  C   -0.169173   0.001393
    22  C    0.240221   0.000194
    23  O   -0.311289   0.000019
    24  O   -0.362279  -0.000101
    25  C    0.328696   0.020311
    26  C   -0.115457  -0.034500
    27  C   -0.057458   0.034270
    28  C    0.266777  -0.035526
    29  C   -0.376575   0.004063
    30  C   -0.159433  -0.000664
    31  C   -0.357230   0.000933
    32  C    0.223725  -0.037658
    33  C   -0.041510   0.036337
    34  C   -0.126788  -0.046409
    35  C    0.309458   0.025202
    36  C   -0.399961  -0.000912
    37  C   -0.133887   0.005218
    38  C   -0.381540  -0.001848
    39  C    0.195711   0.022718
    40  C   -0.015733  -0.030908
    41  C    0.071933   0.036490
    42  C    0.281243  -0.030853
    43  C   -0.411989   0.003759
    44  C   -0.473595  -0.001215
    45  C   -0.068659   0.000827
    46  C    0.223966   0.000167
    47  O   -0.286146   0.000002
    48  O   -0.444615  -0.000027
    49  N   -0.134885   0.034858
    50  N   -0.073819   0.027523
    51  N   -0.035543   0.049161
    52  N    0.008189   0.027542
    53  Fe  -0.147840   3.912786
    54  H    0.147366   0.000076
    55  H    0.114278   0.000098
    56  H    0.147851   0.000070
    57  H    0.158989   0.001630
    58  H    0.178721   0.002466
    59  H    0.107275   0.000536
    60  H    0.149592   0.000021
    61  H    0.113277   0.000337
    62  H    0.131779  -0.001029
    63  H    0.108813   0.001368
    64  H    0.242974  -0.001556
    65  H    0.248630  -0.002460
    66  H    0.189245   0.004836
    67  H    0.091883  -0.000373
    68  H    0.076523   0.002634
    69  H    0.086894  -0.000920
    70  H    0.074491   0.002400
    71  H    0.125376  -0.000644
    72  H    0.144086  -0.001141
    73  H    0.133911  -0.000129
    74  H    0.093832  -0.000071
    75  H    0.110742   0.000461
    76  H    0.129223  -0.000242
    77  H    0.136126   0.000077
    78  H    0.131967  -0.001537
    79  H    0.128338  -0.001104
    80  H    0.117714  -0.000128
    81  H    0.102190   0.000546
    82  H    0.096783   0.000158
    83  H    0.116184   0.000045
    84  H    0.113294   0.000132
    85  H    0.127644   0.000047
    86  H    0.135226   0.000568
    87  H    0.136079   0.001484
    88  H    0.128823   0.000241
    89  H    0.112518  -0.001119
    90  H    0.095342  -0.000203
    91  H    0.119243  -0.000428
    92  H    0.112301   0.000147
    93  H    0.134144   0.000196
    94  H    0.137606  -0.000513
    95  H    0.145356  -0.001498
    96  H    0.124219  -0.000605
    97  H    0.120876   0.000666
    98  H    0.135078  -0.000008
    99  H    0.135833   0.000043
   100  H    0.352972   0.000026
   101  H    0.349530   0.000050
   102  H    0.233241   0.002452
   103  H    0.152296   0.000472
 Sum of Mulliken charges =  -0.00000   4.00000

 Dipole moment (field-independent basis, Debye):
    X=              3.8120    Y=             -0.8739    Z=              7.1345  Tot=              8.1361
 Quadrupole moment (field-independent basis, Debye-Ang):
   XX=           -324.1723   YY=           -328.4229   ZZ=           -310.8891
   XY=             -2.2359   XZ=            -10.7989   YZ=            -18.1920

 Summary of Natural Population Analysis:

                                       Natural Population
                Natural  -----------------------------------------------
    Atom  No    Charge         Core      Valence    Rydberg      Total
 -----------------------------------------------------------------------
      C    1   -0.31848      0.99970     2.31541    0.00337     3.31848
      C    2    0.05908      0.99959     1.93202    0.00932     2.94092
      N    3   -0.23915      0.99968     2.72978    0.00968     3.73915
      C    4   -0.03552      0.99947     2.02615    0.00990     3.03552
      C    5    0.07011      0.99967     1.91841    0.01182     2.92989
      N    6   -0.16424      0.99971     2.63635    0.02817     3.66424
      C    7   -0.31304      0.99972     2.30713    0.00619     3.31304
      C    8   -0.26702      0.99968     2.25591    0.01143     3.26702
      S    9    0.34487      4.99897     2.62758    0.02858     7.65513
      C   10   -0.70176      0.99951     2.66732    0.03493     3.70176
      C   11   -0.11403      0.99948     2.10591    0.00863     3.11403
      C   12   -0.12665      0.99949     2.11878    0.00837     3.12665
      C   13   -0.08994      0.99949     2.08253    0.00792     3.08994
      C   14   -0.12803      0.99947     2.12016    0.00840     3.12803
      C   15    0.03696      0.99945     1.95231    0.01128     2.96304
      C   16   -0.00300      0.99944     1.99371    0.00986     3.00300
      C   17   -0.02753      0.99941     2.01919    0.00892     3.02753
      C   18    0.06978      0.99943     1.91861    0.01219     2.93022
      C   19   -0.31694      0.99970     2.31342    0.00382     3.31694
      C   20   -0.21599      0.99968     2.20862    0.00769     3.21599
      C   21   -0.24828      0.99963     2.23935    0.00929     3.24828
      C   22    0.37105      0.99975     1.61130    0.01790     2.62895
      O   23   -0.33620      0.99977     3.32006    0.01636     4.33620
      O   24   -0.28224      0.99991     3.27194    0.01039     4.28224
      C   25    0.08077      0.99945     1.90899    0.01079     2.91923
      C   26   -0.03592      0.99945     2.02796    0.00850     3.03592
      C   27    0.00909      0.99946     1.98201    0.00944     2.99091
      C   28    0.04653      0.99947     1.94380    0.01019     2.95347
      C   29   -0.31552      0.99970     2.31205    0.00377     3.31552
      C   30   -0.21649      0.99970     2.20948    0.00731     3.21649
      C   31   -0.29833      0.99972     2.29546    0.00315     3.29833
      C   32    0.03724      0.99945     1.95199    0.01131     2.96276
      C   33    0.00800      0.99944     1.98406    0.00851     2.99200
      C   34   -0.03613      0.99942     2.02712    0.00959     3.03613
      C   35    0.07372      0.99942     1.91504    0.01181     2.92628
      C   36   -0.32049      0.99970     2.31710    0.00369     3.32049
      C   37   -0.21056      0.99970     2.20415    0.00671     3.21056
      C   38   -0.30148      0.99972     2.29853    0.00323     3.30148
      C   39    0.08011      0.99944     1.90915    0.01130     2.91989
      C   40   -0.02670      0.99943     2.01871    0.00856     3.02670
      C   41    0.00036      0.99944     1.99081    0.00939     2.99964
      C   42    0.05086      0.99945     1.93941    0.01028     2.94914
      C   43   -0.31684      0.99970     2.31324    0.00390     3.31684
      C   44   -0.21002      0.99967     2.20284    0.00752     3.21002
      C   45   -0.24481      0.99963     2.23621    0.00897     3.24481
      C   46    0.37735      0.99978     1.60379    0.01909     2.62265
      O   47   -0.31254      0.99979     3.29840    0.01435     4.31254
      O   48   -0.32676      0.99992     3.32120    0.00563     4.32676
      N   49   -0.19564      0.99972     2.67259    0.02334     3.69564
      N   50   -0.18844      0.99971     2.66862    0.02010     3.68844
      N   51   -0.17829      0.99970     2.65518    0.02341     3.67829
      N   52   -0.19580      0.99970     2.67706    0.01903     3.69580
     Fe   53    1.98795      8.99541     1.97563    0.04101    11.01205
      H   54    0.11480      0.00000     0.38456    0.00064     0.38520
      H   55    0.10580      0.00000     0.39359    0.00061     0.39420
      H   56    0.11471      0.00000     0.38460    0.00069     0.38529
      H   57    0.11786      0.00000     0.38141    0.00073     0.38214
      H   58    0.11452      0.00000     0.38468    0.00080     0.38548
      H   59    0.10296      0.00000     0.39646    0.00058     0.39704
      H   60    0.11561      0.00000     0.38348    0.00091     0.38439
      H   61    0.10654      0.00000     0.39253    0.00094     0.39346
      H   62    0.12245      0.00000     0.37650    0.00105     0.37755
      H   63    0.11050      0.00000     0.38857    0.00093     0.38950
      H   64    0.20425      0.00000     0.29483    0.00092     0.29575
      H   65    0.19522      0.00000     0.30364    0.00115     0.30478
      H   66    0.20828      0.00000     0.28930    0.00242     0.29172
      H   67    0.10355      0.00000     0.39526    0.00119     0.39645
      H   68    0.10487      0.00000     0.39358    0.00155     0.39513
      H   69    0.10478      0.00000     0.39346    0.00176     0.39522
      H   70    0.10563      0.00000     0.39263    0.00174     0.39437
      H   71    0.10830      0.00000     0.39101    0.00069     0.39170
      H   72    0.10953      0.00000     0.38963    0.00084     0.39047
      H   73    0.10892      0.00000     0.39026    0.00082     0.39108
      H   74    0.10279      0.00000     0.39583    0.00138     0.39721
      H   75    0.11309      0.00000     0.38600    0.00091     0.38691
      H   76    0.12320      0.00000     0.37600    0.00080     0.37680
      H   77    0.11864      0.00000     0.38053    0.00083     0.38136
      H   78    0.10864      0.00000     0.39042    0.00094     0.39136
      H   79    0.10819      0.00000     0.39089    0.00092     0.39181
      H   80    0.10616      0.00000     0.39324    0.00060     0.39384
      H   81    0.10885      0.00000     0.39011    0.00104     0.39115
      H   82    0.10710      0.00000     0.39212    0.00078     0.39290
      H   83    0.10340      0.00000     0.39598    0.00062     0.39660
      H   84    0.10238      0.00000     0.39699    0.00064     0.39762
      H   85    0.10440      0.00000     0.39485    0.00075     0.39560
      H   86    0.11116      0.00000     0.38807    0.00078     0.38884
      H   87    0.10973      0.00000     0.38939    0.00088     0.39027
      H   88    0.10873      0.00000     0.39059    0.00068     0.39127
      H   89    0.10832      0.00000     0.39055    0.00113     0.39168
      H   90    0.10566      0.00000     0.39356    0.00078     0.39434
      H   91    0.10326      0.00000     0.39611    0.00063     0.39674
      H   92    0.10027      0.00000     0.39902    0.00071     0.39973
      H   93    0.10567      0.00000     0.39360    0.00073     0.39433
      H   94    0.11014      0.00000     0.38914    0.00072     0.38986
      H   95    0.11018      0.00000     0.38897    0.00085     0.38982
      H   96    0.10777      0.00000     0.39155    0.00068     0.39223
      H   97    0.10478      0.00000     0.39411    0.00112     0.39522
      H   98    0.11409      0.00000     0.38502    0.00089     0.38591
      H   99    0.12547      0.00000     0.37377    0.00076     0.37453
      H  100    0.25795      0.00000     0.24084    0.00121     0.24205
      H  101    0.25696      0.00000     0.24147    0.00157     0.24304
      H  102    0.20948      0.00000     0.28966    0.00086     0.29052
      H  103    0.11940      0.00000     0.37987    0.00073     0.38060
 =======================================================================
   * Total *    2.00000     64.97412   138.35074    0.67514   204.00000

 Normal termination of Gaussian 16 at Wed Sep 21 16:08:50 2022.
