 Gaussian 16, Revision A.03,
 Gaussian 16:  ES64L-G16RevA.03 25-Dec-2016

 ---------------------------------------------------------------------
 # polar def2tzvp empiricaldispersion=gd3bj int=grid=ultrafine pbe1pbe
 ---------------------------------------------------------------------

 ---------
 4mu8_II_S
 ---------
 Symbolic Z-matrix:
 Charge =  0 Multiplicity = 1

                         Standard orientation:
 ---------------------------------------------------------------------
 Center     Atomic      Atomic             Coordinates (Angstroms)
 Number     Number       Type             X           Y           Z
 ---------------------------------------------------------------------
      1          6           0        2.776620   -1.125957    4.750931
      2          6           0        1.912829   -0.737753    3.594083
      3          7           0        0.536446   -0.753147    3.647472
      4          6           0        2.233614   -0.408574    2.314730
      5          6           0        0.044378   -0.451717    2.454421
      6          7           0        1.052610   -0.224535    1.630805
      7          1           0        3.767406   -1.331506    4.403092
      8          1           0        2.374372   -2.000098    5.218877
      9          1           0        0.069108   -0.955344    4.340580
     10          1           0        3.091638   -0.326361    1.965602
     11          1           0       -0.858295   -0.369969    2.244213
     12         26           0        0.836145    0.052309   -0.374355
     13          6           0       -2.600453   -0.145327   -0.323929
     14          6           0        1.042185   -3.392417   -0.507135
     15          6           0        4.259652    0.299134   -0.896191
     16          6           0        0.691990    3.372252    0.408953
     17          7           0       -0.458485   -1.536031   -0.453179
     18          6           0       -1.856131   -1.341623   -0.491846
     19          6           0       -2.436676   -2.605159   -0.705359
     20          6           0       -1.415452   -3.521177   -0.655497
     21          6           0       -0.174425   -2.830778   -0.578315
     22          6           0       -1.529160   -5.045038   -0.868816
     23          6           0       -3.947566   -2.910917   -0.745828
     24          6           0       -4.504387   -3.020962    0.653917
     25          6           0       -5.960441   -3.455007    0.690880
     26          8           0       -6.595235   -3.612457   -0.383848
     27          8           0       -6.435132   -3.643951    1.829854
     28          7           0        2.475380   -1.397317   -0.448366
     29          6           0        2.268915   -2.724588   -0.540981
     30          6           0        3.533885   -3.258879   -0.639656
     31          6           0        4.486849   -2.205743   -0.851203
     32          6           0        3.717990   -0.994780   -0.846877
     33          6           0        3.827007   -4.667654   -0.526186
     34          6           0        5.856621   -2.266395   -1.230466
     35          6           0        6.243337   -3.057289   -2.343338
     36          7           0        2.303721    1.564461   -0.288214
     37          6           0        3.591065    1.454705   -0.578278
     38          6           0        4.165880    2.738819   -0.375099
     39          6           0        3.144884    3.594761    0.019139
     40          6           0        1.949419    2.851112    0.088388
     41          6           0        5.550084    3.008445   -0.450421
     42          6           0        3.218842    4.962330    0.460999
     43          6           0        3.899085    5.976141   -0.311065
     44          7           0       -0.701619    1.359982    0.134983
     45          6           0       -0.521877    2.682717    0.336717
     46          6           0       -1.785119    3.253672    0.588134
     47          6           0       -2.748217    2.254876    0.343462
     48          6           0       -2.027383    1.089188   -0.032166
     49          6           0       -2.029220    4.620727    0.983218
     50          6           0       -4.223614    2.453961    0.320344
     51          6           0       -4.612649    2.978818   -1.066036
     52          6           0       -6.053247    3.435773   -1.243915
     53          8           0       -6.864059    3.489633   -0.280313
     54          8           0       -6.373681    3.850772   -2.407014
     55          8           0        0.688932    0.226273   -2.352285
     56          1           0        2.806297   -0.324105    5.458782
     57          1           0        0.360646   -0.670594   -2.255032
     58          1           0        0.268428    0.793268   -1.701674
     59          1           0        5.279054    0.392359   -1.207685
     60          1           0        1.076196   -4.457926   -0.415303
     61          1           0       -3.664254   -0.195076   -0.427624
     62          1           0        0.655743    4.389452    0.738938
     63          1           0        5.920639    2.706766   -1.407803
     64          1           0        5.716959    4.056975   -0.317611
     65          1           0        6.061421    2.465881    0.317080
     66          1           0        3.577079   -5.005845    0.457716
     67          1           0        3.252005   -5.210773   -1.246807
     68          1           0        4.869229   -4.830668   -0.705353
     69          1           0       -0.804387   -5.359213   -1.590548
     70          1           0       -1.351273   -5.549187    0.058055
     71          1           0       -2.510677   -5.283500   -1.221890
     72          1           0       -2.500977    4.635654    1.943489
     73          1           0       -1.099907    5.148634    1.034137
     74          1           0       -2.667679    5.091028    0.264826
     75          1           0       -4.716799    1.522637    0.505557
     76          1           0       -4.503830    3.166240    1.068032
     77          1           0       -3.973651    3.805428   -1.296899
     78          1           0       -4.422676    2.202680   -1.777668
     79          1           0       -6.536066    3.221285   -3.113397
     80          1           0       -3.920867   -3.732687    1.199676
     81          1           0       -4.418882   -2.067764    1.132459
     82          1           0       -4.106911   -3.834273   -1.262474
     83          1           0       -4.452936   -2.123977   -1.265662
     84          1           0       -6.705437   -4.492287   -0.751754
     85          1           0        3.561420    5.938222   -1.325680
     86          1           0        3.685615    6.940662    0.100067
     87          1           0        4.954098    5.800502   -0.279475
     88          1           0        2.757296    5.235693    1.386822
     89          1           0        5.384316   -3.554088   -2.743555
     90          1           0        6.674407   -2.429178   -3.094706
     91          1           0        6.962893   -3.784980   -2.030919
     92          1           0        6.591800   -1.718231   -0.679170
 ---------------------------------------------------------------------

 SCF Done:  E(RPBE1PBE) =  -3439.66287886     A.U. after   30 cycles

 The electronic state is 1-A.
 Alpha  occ. eigenvalues -- -256.31316 -30.07877 -25.90648 -25.90422 -25.90341
 Alpha  occ. eigenvalues --  -19.26248 -19.25351 -19.20778 -19.18776 -19.18600
 Alpha  occ. eigenvalues --  -14.43427 -14.39031 -14.37228 -14.37117 -14.36890
 Alpha  occ. eigenvalues --  -14.34584 -10.35808 -10.35794 -10.26689 -10.26228
 Alpha  occ. eigenvalues --  -10.25690 -10.24948 -10.24745 -10.24385 -10.24248
 Alpha  occ. eigenvalues --  -10.24105 -10.23507 -10.23426 -10.23343 -10.23242
 Alpha  occ. eigenvalues --  -10.23206 -10.23147 -10.23055 -10.23049 -10.22658
 Alpha  occ. eigenvalues --  -10.22628 -10.22568 -10.22447 -10.22199 -10.22192
 Alpha  occ. eigenvalues --  -10.22164 -10.21858 -10.21823 -10.21765 -10.21508
 Alpha  occ. eigenvalues --  -10.21330 -10.20757 -10.20755 -10.20726 -10.20546
 Alpha  occ. eigenvalues --  -10.20423 -10.19916 -10.19759 -10.19426  -3.42871
 Alpha  occ. eigenvalues --   -2.19092  -2.18165  -2.18062  -1.16908  -1.15460
 Alpha  occ. eigenvalues --   -1.07214  -1.05877  -1.03316  -1.02403  -0.98628
 Alpha  occ. eigenvalues --   -0.97985  -0.97689  -0.96541  -0.92322  -0.84806
 Alpha  occ. eigenvalues --   -0.84118  -0.83706  -0.83026  -0.82752  -0.82204
 Alpha  occ. eigenvalues --   -0.81660  -0.81438  -0.79720  -0.79216  -0.78370
 Alpha  occ. eigenvalues --   -0.77685  -0.75797  -0.74926  -0.73669  -0.72995
 Alpha  occ. eigenvalues --   -0.72350  -0.71171  -0.69990  -0.69270  -0.69131
 Alpha  occ. eigenvalues --   -0.67743  -0.66830  -0.66505  -0.65771  -0.65096
 Alpha  occ. eigenvalues --   -0.64457  -0.62869  -0.62433  -0.59366  -0.59143
 Alpha  occ. eigenvalues --   -0.58335  -0.57639  -0.56577  -0.55307  -0.54648
 Alpha  occ. eigenvalues --   -0.53937  -0.53549  -0.53069  -0.52934  -0.52635
 Alpha  occ. eigenvalues --   -0.52059  -0.51255  -0.50644  -0.49766  -0.49446
 Alpha  occ. eigenvalues --   -0.49176  -0.48826  -0.48660  -0.48396  -0.47701
 Alpha  occ. eigenvalues --   -0.46830  -0.46570  -0.46450  -0.45918  -0.45766
 Alpha  occ. eigenvalues --   -0.45695  -0.45527  -0.45151  -0.44885  -0.44626
 Alpha  occ. eigenvalues --   -0.44426  -0.44039  -0.43907  -0.43862  -0.43537
 Alpha  occ. eigenvalues --   -0.43395  -0.43177  -0.42892  -0.42641  -0.42480
 Alpha  occ. eigenvalues --   -0.42280  -0.41624  -0.41236  -0.41083  -0.40849
 Alpha  occ. eigenvalues --   -0.40671  -0.40103  -0.39838  -0.39802  -0.39602
 Alpha  occ. eigenvalues --   -0.39325  -0.39153  -0.39009  -0.38396  -0.38093
 Alpha  occ. eigenvalues --   -0.37603  -0.37383  -0.36658  -0.36545  -0.36289
 Alpha  occ. eigenvalues --   -0.35694  -0.35625  -0.35001  -0.34894  -0.34657
 Alpha  occ. eigenvalues --   -0.34340  -0.33864  -0.33649  -0.32954  -0.32288
 Alpha  occ. eigenvalues --   -0.32162  -0.30328  -0.29166  -0.28911  -0.28448
 Alpha  occ. eigenvalues --   -0.28228  -0.27970  -0.27286  -0.25406  -0.24469
 Alpha  occ. eigenvalues --   -0.24218  -0.23377  -0.22441  -0.20865  -0.20339
 Alpha  occ. eigenvalues --   -0.19743  -0.19356  -0.19204  -0.13573
 Alpha virt. eigenvalues --   -0.11011  -0.07205  -0.07084  -0.02207  -0.01546
 Alpha virt. eigenvalues --   -0.01490   0.01254   0.01594   0.02097   0.02360
 Alpha virt. eigenvalues --    0.03279   0.03479   0.04155   0.04325   0.04603

 Mulliken charges:
               1
     1  C   -0.378134
     2  C    0.223594
     3  N   -0.184635
     4  C   -0.262624
     5  C    0.018641
     6  N    0.056919
     7  H    0.147649
     8  H    0.130041
     9  H    0.160772
    10  H    0.148132
    11  H    0.178097
    12  Fe  -0.190498
    13  C   -0.577198
    14  C   -0.491006
    15  C   -0.556914
    16  C   -0.486633
    17  N   -0.126709
    18  C    0.238169
    19  C    0.053215
    20  C   -0.070990
    21  C    0.199207
    22  C   -0.394684
    23  C   -0.273493
    24  C   -0.237913
    25  C    0.292100
    26  O   -0.358270
    27  O   -0.331457
    28  N   -0.178670
    29  C    0.249454
    30  C   -0.040826
    31  C   -0.023634
    32  C    0.260700
    33  C   -0.402493
    34  C   -0.236869
    35  C   -0.330103
    36  N   -0.062337
    37  C    0.269227
    38  C   -0.090168
    39  C    0.054138
    40  C    0.227233
    41  C   -0.361645
    42  C   -0.272369
    43  C   -0.296717
    44  N   -0.124280
    45  C    0.345289
    46  C   -0.077889
    47  C   -0.024500
    48  C    0.275709
    49  C   -0.382336
    50  C   -0.216694
    51  C   -0.291641
    52  C    0.320272
    53  O   -0.340046
    54  O   -0.359137
    55  O   -0.419164
    56  H    0.143091
    57  H    0.349627
    58  H    0.333120
    59  H    0.121859
    60  H    0.142302
    61  H    0.120703
    62  H    0.087906
    63  H    0.130200
    64  H    0.095824
    65  H    0.129352
    66  H    0.128003
    67  H    0.130836
    68  H    0.137328
    69  H    0.140871
    70  H    0.140655
    71  H    0.116375
    72  H    0.141630
    73  H    0.121173
    74  H    0.124141
    75  H    0.114226
    76  H    0.127254
    77  H    0.145095
    78  H    0.131610
    79  H    0.348221
    80  H    0.139012
    81  H    0.137149
    82  H    0.088541
    83  H    0.124000
    84  H    0.355934
    85  H    0.143286
    86  H    0.120563
    87  H    0.119500
    88  H    0.137266
    89  H    0.141969
    90  H    0.140805
    91  H    0.121421
    92  H    0.133273
 Sum of Mulliken charges =  -0.00000

 Dipole moment (field-independent basis, Debye):
    X=              3.7690    Y=             -3.2292    Z=              0.1477  Tot=              4.9654
 Quadrupole moment (field-independent basis, Debye-Ang):
   XX=           -325.6676   YY=           -278.5011   ZZ=           -277.0150
   XY=             18.5701   XZ=             39.3734   YZ=              7.2517

  Exact polarizability: 890.591 -35.6241010.705 -51.492  88.522 385.067
 Approx polarizability:1821.629-880.9835525.937-263.773 886.036 764.901

 Normal termination of Gaussian 16 at Fri Sep  2 12:29:20 2022.
