 Gaussian 16, Revision A.03,
 Gaussian 16:  ES64L-G16RevA.03 25-Dec-2016

 ----------------------------------------------------------------------
 # PBE1PBE/def2TZVP empiricaldispersion=GD3BJ int=(grid=ultrafine) geom
 =check pop=nbo
 ----------------------------------------------------------------------

 ----------
 7abb_III_D
 ----------
 Structure from the checkpoint file:  "7abb_III_D.chk"
 Charge =  1 Multiplicity = 2

                         Standard orientation:
 ---------------------------------------------------------------------
 Center     Atomic      Atomic             Coordinates (Angstroms)
 Number     Number       Type             X           Y           Z
 ---------------------------------------------------------------------
      1          6           0       -0.046732   -0.771680    2.872277
      2         16           0       -1.374019    0.097309    2.012425
      3          1           0        0.289432   -1.591873    2.272962
      4          1           0       -0.409708   -1.139714    3.809134
      5         26           0       -1.393013    0.175637   -0.156078
      6          6           0        2.469015    0.105011   -0.134809
      7          6           0       -0.702768   -3.508412   -0.127255
      8          6           0       -4.387103   -0.315051   -0.256680
      9          6           0       -1.204393    3.271073   -0.679160
     10          7           0        0.560297   -1.411816   -0.163794
     11          6           0        1.927066   -1.144679   -0.084506
     12          6           0        2.700368   -2.363466    0.036107
     13          6           0        1.793213   -3.356639    0.047244
     14          6           0        0.473821   -2.787405   -0.078344
     15          6           0        2.051625   -4.871381    0.137036
     16          6           0        4.260308   -2.483431    0.174182
     17          6           0        4.996020   -2.558529   -1.157418
     18          6           0        6.485577   -2.727630   -0.910710
     19          8           0        7.202252   -2.678361   -1.936702
     20          8           0        6.886589   -2.901902    0.269841
     21          7           0       -2.285205   -1.608310   -0.252991
     22          6           0       -1.981957   -2.954429   -0.161782
     23          6           0       -3.220073   -3.670605   -0.089486
     24          6           0       -4.232574   -2.784444   -0.100024
     25          6           0       -3.671135   -1.484246   -0.227574
     26          6           0       -3.243681   -5.207673    0.028720
     27          6           0       -5.732514   -2.927017   -0.069017
     28          6           0       -6.267946   -4.256441    0.354683
     29          7           0       -2.490748    1.233963   -0.461067
     30          6           0       -3.829611    0.936224   -0.349303
     31          6           0       -4.584944    2.160107   -0.379665
     32          6           0       -3.713975    3.188509   -0.490274
     33          6           0       -2.395456    2.602370   -0.561507
     34          6           0       -6.109437    2.217437   -0.264343
     35          6           0       -3.945168    4.704736   -0.600992
     36          6           0       -5.269714    5.302264   -0.126744
     37          7           0        0.373989    1.374724   -0.399832
     38          6           0        0.030492    2.714569   -0.580823
     39          6           0        1.239206    3.475123   -0.631299
     40          6           0        2.381195    2.534373   -0.472415
     41          6           0        1.750275    1.242614   -0.310919
     42          6           0        1.320466    4.993381   -0.834072
     43          6           0        3.885682    2.856041   -0.466407
     44          6           0        4.300751    3.074676    0.968261
     45          6           0        5.799170    3.294304    1.047876
     46          8           0        6.280523    3.770718    2.098150
     47          8           0        6.480444    2.985312    0.049627
     48          1           0        3.441085    0.186790   -0.036949
     49          1           0       -0.633804   -4.486192   -0.137642
     50          1           0       -5.364731   -0.376313   -0.208931
     51          1           0       -1.248058    4.235840   -0.849197
     52          1           0        1.617417   -5.230010    0.938683
     53          1           0        3.016294   -5.035195    0.187300
     54          1           0        1.687021   -5.311970   -0.658928
     55          1           0        4.463806   -3.282984    0.684627
     56          1           0        4.587267   -1.712837    0.663807
     57          1           0        4.841886   -1.741358   -1.658077
     58          1           0        4.665500   -3.314794   -1.667143
     59          1           0       -3.717274   -5.582474   -0.730444
     60          1           0       -3.694149   -5.461825    0.849268
     61          1           0       -2.334717   -5.544860    0.041827
     62          1           0       -6.104464   -2.718677   -1.050417
     63          1           0       -5.948325   -4.941688   -0.253650
     64          1           0       -7.237200   -4.235182    0.338135
     65          1           0       -5.963499   -4.455558    1.254580
     66          1           0       -6.478346    2.627966   -1.062013
     67          1           0       -6.355683    2.741891    0.512886
     68          1           0       -6.460104    1.317888   -0.172694
     69          1           0       -3.163941    5.186527   -0.051028
     70          1           0       -5.099976    5.945229    0.579595
     71          1           0       -5.841275    4.595172    0.210628
     72          1           0       -5.708724    5.746624   -0.868977
     73          1           0        1.764054    5.402382   -0.062576
     74          1           0        0.416096    5.360116   -0.923545
     75          1           0        1.833441    5.186720   -1.646157
     76          1           0        4.052672    3.659589   -0.983009
     77          1           0        4.383479    2.113003   -0.843319
     78          1           0        4.061463    2.295686    1.493684
     79          1           0        3.842306    3.853824    1.320263
     80          1           0        7.747368   -3.430832   -2.178023
     81          1           0        6.906062    2.125910    0.006291
     82          1           0       -3.827262    4.970022   -1.630857
     83          1           0       -6.120962   -2.186493    0.598541
     84          1           0        0.767117   -0.098735    3.044599
     85          1           0       -2.326119    0.680880    2.697296
 ---------------------------------------------------------------------

 SCF Done:  E(UPBE1PBE) =  -3537.30363934     A.U. after   90 cycles

 Alpha virt. eigenvalues --    0.30529   0.30698   0.30797   0.31118   0.31554
 Alpha virt. eigenvalues --    0.31668   0.31861   0.32391   0.32560   0.32809
 Alpha virt. eigenvalues --    0.33094   0.33330   0.33693   0.33879   0.34054

  Beta  occ. eigenvalues -- -256.51692 -89.17871 -30.27849 -26.11113 -26.10435
  Beta  occ. eigenvalues --  -26.10084 -19.33867 -19.32644 -19.26440 -19.25202
  Beta  occ. eigenvalues --  -14.54159 -14.50823 -14.49769 -14.48351 -10.43608
  Beta  occ. eigenvalues --  -10.42318 -10.37709 -10.37583 -10.37477 -10.37008
  Beta  occ. eigenvalues --  -10.36398 -10.36125 -10.35983 -10.35816 -10.35744
  Beta  occ. eigenvalues --  -10.34449 -10.34355 -10.34003 -10.33919 -10.33376
  Beta  occ. eigenvalues --  -10.33172 -10.33114 -10.33055 -10.32704 -10.32614
  Beta  occ. eigenvalues --  -10.32505 -10.32357 -10.32007 -10.30851 -10.29606
  Beta  occ. eigenvalues --  -10.29364 -10.29303 -10.28568 -10.28344 -10.27588
  Beta  occ. eigenvalues --  -10.27560 -10.27340 -10.25838 -10.25040  -8.16016
  Beta  occ. eigenvalues --   -6.09658  -6.09452  -6.08816  -3.61415  -2.38994
  Beta  occ. eigenvalues --   -2.35802  -2.35512  -1.24548  -1.23988  -1.13186
  Beta  occ. eigenvalues --   -1.10675  -1.09668  -1.09275  -1.07938  -1.06792
  Beta  occ. eigenvalues --   -0.96806  -0.95459  -0.95051  -0.94309  -0.93946
  Beta  occ. eigenvalues --   -0.93470  -0.93374  -0.93017  -0.90024  -0.89538
  Beta  occ. eigenvalues --   -0.88954  -0.88646  -0.88470  -0.86103  -0.84888
  Beta  occ. eigenvalues --   -0.83935  -0.83209  -0.82000  -0.81754  -0.80035
  Beta  occ. eigenvalues --   -0.78846  -0.78086  -0.77694  -0.76541  -0.75577
  Beta  occ. eigenvalues --   -0.75170  -0.74474  -0.72036  -0.71197  -0.68271
  Beta  occ. eigenvalues --   -0.67659  -0.66969  -0.66400  -0.64791  -0.63862
  Beta  occ. eigenvalues --   -0.63331  -0.62509  -0.61800  -0.61751  -0.61159
  Beta  occ. eigenvalues --   -0.60758  -0.60438  -0.59778  -0.59608  -0.58936
  Beta  occ. eigenvalues --   -0.58557  -0.58165  -0.57561  -0.57463  -0.57286
  Beta  occ. eigenvalues --   -0.57081  -0.56711  -0.56533  -0.55656  -0.55564
  Beta  occ. eigenvalues --   -0.55464  -0.55320  -0.55217  -0.54846  -0.54707
  Beta  occ. eigenvalues --   -0.54530  -0.54299  -0.54008  -0.53560  -0.53386
  Beta  occ. eigenvalues --   -0.52847  -0.52819  -0.52590  -0.52353  -0.51511
  Beta  occ. eigenvalues --   -0.51367  -0.51045  -0.50668  -0.50267  -0.49776
  Beta  occ. eigenvalues --   -0.49737  -0.49374  -0.48796  -0.48278  -0.48067
  Beta  occ. eigenvalues --   -0.47857  -0.47355  -0.47213  -0.47036  -0.46803
  Beta  occ. eigenvalues --   -0.46268  -0.45528  -0.45304  -0.45144  -0.44836
  Beta  occ. eigenvalues --   -0.44299  -0.43853  -0.43390  -0.43228  -0.41910
  Beta  occ. eigenvalues --   -0.41437  -0.41222  -0.40926  -0.40258  -0.39700
  Beta  occ. eigenvalues --   -0.39499  -0.37817  -0.36428  -0.36158  -0.35047
  Beta  occ. eigenvalues --   -0.34563  -0.33956  -0.32852  -0.31914  -0.30809
  Beta virt. eigenvalues --   -0.20349  -0.19672  -0.17950  -0.17387  -0.16179
  Beta virt. eigenvalues --   -0.12194  -0.11213  -0.08980  -0.08679  -0.07564
  Beta virt. eigenvalues --   -0.06669  -0.06271  -0.05606  -0.04222  -0.04143

 Mulliken charges and spin densities:
               1          2
     1  C   -0.298984  -0.004920
     2  S   -0.072261  -0.010077
     3  H    0.182816   0.000072
     4  H    0.185394  -0.000272
     5  Fe   0.331542   1.248487
     6  C   -0.521403  -0.042282
     7  C   -0.494554  -0.046474
     8  C   -0.508090  -0.026309
     9  C   -0.545951  -0.024864
    10  N   -0.284050  -0.040094
    11  C    0.375541   0.017165
    12  C    0.007999   0.002248
    13  C   -0.053262   0.000614
    14  C    0.223207   0.018540
    15  C   -0.351654  -0.000181
    16  C   -0.399054  -0.000519
    17  C   -0.202124   0.000173
    18  C    0.280100   0.000022
    19  O   -0.337747   0.000010
    20  O   -0.344289  -0.000006
    21  N   -0.056303  -0.047001
    22  C    0.276500   0.019222
    23  C   -0.092910  -0.001353
    24  C   -0.117367   0.013287
    25  C    0.362056   0.010580
    26  C   -0.333442  -0.000649
    27  C   -0.201662  -0.000356
    28  C   -0.356916   0.000077
    29  N   -0.120943  -0.110241
    30  C    0.311761   0.020279
    31  C   -0.087729  -0.000876
    32  C   -0.127336  -0.003926
    33  C    0.234993   0.018667
    34  C   -0.354530   0.000600
    35  C   -0.173939   0.000491
    36  C   -0.331538  -0.000155
    37  N   -0.146367  -0.059353
    38  C    0.430199   0.009276
    39  C   -0.130224   0.014778
    40  C   -0.010544   0.002011
    41  C    0.279107   0.019458
    42  C   -0.344372  -0.000497
    43  C   -0.260393  -0.000782
    44  C   -0.223836   0.000155
    45  C    0.279566  -0.000067
    46  O   -0.316716  -0.000032
    47  O   -0.350673   0.000000
    48  H    0.135506   0.001754
    49  H    0.146053   0.001977
    50  H    0.138847   0.001834
    51  H    0.143734   0.001814
    52  H    0.148816   0.000051
    53  H    0.142405  -0.000062
    54  H    0.147460   0.000024
    55  H    0.158321  -0.000014
    56  H    0.130003  -0.000016
    57  H    0.131463  -0.000017
    58  H    0.137437   0.000001
    59  H    0.158260   0.000156
    60  H    0.152079  -0.000116
    61  H    0.125546  -0.000055
    62  H    0.129648   0.000720
    63  H    0.126787  -0.000003
    64  H    0.147849   0.000027
    65  H    0.127770   0.000006
    66  H    0.168381  -0.000076
    67  H    0.151781  -0.000072
    68  H    0.132794  -0.000061
    69  H    0.121934  -0.000031
    70  H    0.137641  -0.000053
    71  H    0.111509   0.000000
    72  H    0.138553   0.000003
    73  H    0.149271   0.000168
    74  H    0.118250  -0.000025
    75  H    0.155032   0.000512
    76  H    0.146337   0.000123
    77  H    0.110728  -0.000092
    78  H    0.132058  -0.000011
    79  H    0.135153  -0.000002
    80  H    0.365385   0.000004
    81  H    0.363054   0.000002
    82  H    0.136946  -0.000380
    83  H    0.106443   0.000483
    84  H    0.170386   0.001431
    85  H    0.210764  -0.004931
 Sum of Mulliken charges =   1.00000   1.00000

 Dipole moment (field-independent basis, Debye):
    X=             -8.2104    Y=             -2.9860    Z=             -0.9448  Tot=              8.7875
 Quadrupole moment (field-independent basis, Debye-Ang):
   XX=           -196.9889   YY=           -206.3272   ZZ=           -263.8720
   XY=            -34.6120   XZ=            -39.2402   YZ=             -4.6860

 Summary of Natural Population Analysis:

                                       Natural Population
                Natural  -----------------------------------------------
    Atom  No    Charge         Core      Valence    Rydberg      Total
 -----------------------------------------------------------------------
      C    1   -0.34836      0.99961     2.34007    0.00868     3.34836
      S    2    0.14317      4.99900     2.83906    0.01877     7.85683
      H    3    0.13504      0.00000     0.36431    0.00065     0.36496
      H    4    0.12419      0.00000     0.37538    0.00043     0.37581
     Fe    5    0.83140      8.98724     3.16635    0.01501    12.16860
      C    6   -0.11085      0.99946     2.10269    0.00870     3.11085
      C    7   -0.11127      0.99950     2.10388    0.00788     3.11127
      C    8   -0.12099      0.99949     2.11358    0.00792     3.12099
      C    9   -0.10951      0.99948     2.10198    0.00805     3.10951
      N   10   -0.25031      0.99968     2.73088    0.01976     3.75031
      C   11    0.08200      0.99953     1.90855    0.00992     2.91800
      C   12   -0.01003      0.99934     2.00146    0.00923     3.01003
      C   13   -0.00449      0.99939     1.99728    0.00782     3.00449
      C   14    0.07723      0.99955     1.91294    0.01028     2.92277
      C   15   -0.30597      0.99958     2.30314    0.00325     3.30597
      C   16   -0.19125      0.99951     2.18525    0.00649     3.19125
      C   17   -0.24188      0.99950     2.23483    0.00755     3.24188
      C   18    0.38699      0.99979     1.59542    0.01780     2.61301
      O   19   -0.33494      0.99980     3.32093    0.01421     4.33494
      O   20   -0.28886      0.99990     3.27719    0.01177     4.28886
      N   21   -0.21821      0.99966     2.69840    0.02015     3.71821
      C   22    0.08995      0.99954     1.90003    0.01048     2.91005
      C   23   -0.00126      0.99938     1.99410    0.00778     3.00126
      C   24   -0.00303      0.99942     1.99465    0.00897     3.00303
      C   25    0.08129      0.99953     1.90963    0.00956     2.91871
      C   26   -0.29837      0.99956     2.29546    0.00335     3.29837
      C   27   -0.20572      0.99969     2.19983    0.00620     3.20572
      C   28   -0.28703      0.99962     2.28474    0.00268     3.28703
      N   29   -0.19405      0.99945     2.67384    0.02076     3.69405
      C   30    0.06824      0.99951     1.92206    0.01019     2.93176
      C   31    0.00457      0.99941     1.98815    0.00786     2.99543
      C   32    0.00263      0.99942     1.98963    0.00832     2.99737
      C   33    0.07411      0.99952     1.91636    0.01001     2.92589
      C   34   -0.29993      0.99956     2.29692    0.00345     3.29993
      C   35   -0.21149      0.99968     2.20692    0.00489     3.21149
      C   36   -0.28893      0.99959     2.28625    0.00310     3.28893
      N   37   -0.23918      0.99969     2.71961    0.01989     3.73918
      C   38    0.06568      0.99948     1.92542    0.00942     2.93432
      C   39    0.01737      0.99957     1.97545    0.00761     2.98263
      C   40    0.00515      0.99957     1.98693    0.00836     2.99485
      C   41    0.07791      0.99948     1.91241    0.01019     2.92209
      C   42   -0.30706      0.99958     2.30444    0.00304     3.30706
      C   43   -0.20178      0.99955     2.19651    0.00572     3.20178
      C   44   -0.23914      0.99951     2.23190    0.00772     3.23914
      C   45    0.38418      0.99978     1.59779    0.01825     2.61582
      O   46   -0.27012      0.99989     3.25839    0.01184     4.27012
      O   47   -0.34448      0.99979     3.32976    0.01494     4.34448
      H   48    0.10497      0.00000     0.39401    0.00102     0.39503
      H   49    0.10661      0.00000     0.39209    0.00129     0.39339
      H   50    0.11171      0.00000     0.38642    0.00187     0.38829
      H   51    0.11080      0.00000     0.38737    0.00183     0.38920
      H   52    0.10774      0.00000     0.39160    0.00066     0.39226
      H   53    0.10832      0.00000     0.39105    0.00064     0.39168
      H   54    0.10796      0.00000     0.39138    0.00066     0.39204
      H   55    0.11176      0.00000     0.38757    0.00066     0.38824
      H   56    0.10300      0.00000     0.39600    0.00101     0.39700
      H   57    0.10734      0.00000     0.39199    0.00066     0.39266
      H   58    0.10968      0.00000     0.38968    0.00064     0.39032
      H   59    0.10917      0.00000     0.39015    0.00068     0.39083
      H   60    0.10925      0.00000     0.39006    0.00069     0.39075
      H   61    0.10159      0.00000     0.39787    0.00054     0.39841
      H   62    0.11113      0.00000     0.38804    0.00084     0.38887
      H   63    0.09943      0.00000     0.39989    0.00067     0.40057
      H   64    0.10517      0.00000     0.39428    0.00055     0.39483
      H   65    0.09896      0.00000     0.40037    0.00067     0.40104
      H   66    0.11178      0.00000     0.38757    0.00064     0.38822
      H   67    0.10934      0.00000     0.38999    0.00068     0.39066
      H   68    0.10339      0.00000     0.39606    0.00055     0.39661
      H   69    0.10926      0.00000     0.38997    0.00077     0.39074
      H   70    0.10485      0.00000     0.39465    0.00050     0.39515
      H   71    0.09911      0.00000     0.40019    0.00070     0.40089
      H   72    0.10493      0.00000     0.39457    0.00051     0.39507
      H   73    0.11032      0.00000     0.38901    0.00067     0.38968
      H   74    0.10270      0.00000     0.39674    0.00055     0.39730
      H   75    0.11180      0.00000     0.38756    0.00063     0.38820
      H   76    0.10846      0.00000     0.39058    0.00096     0.39154
      H   77    0.10138      0.00000     0.39733    0.00129     0.39862
      H   78    0.10820      0.00000     0.39120    0.00060     0.39180
      H   79    0.11271      0.00000     0.38664    0.00065     0.38729
      H   80    0.26204      0.00000     0.23675    0.00120     0.23796
      H   81    0.26116      0.00000     0.23767    0.00117     0.23884
      H   82    0.11431      0.00000     0.38487    0.00081     0.38569
      H   83    0.10458      0.00000     0.39464    0.00078     0.39542
      H   84    0.12132      0.00000     0.37815    0.00053     0.37868
      H   85    0.10112      0.00000     0.39604    0.00284     0.39888
 =======================================================================
   * Total *    1.00000     56.96778   117.55074    0.48148   175.00000

 Normal termination of Gaussian 16 at Tue Sep 13 03:46:14 2022.
