 Gaussian 16, Revision A.03,
 Gaussian 16:  ES64L-G16RevA.03 25-Dec-2016

 ----------------------------------------------------------------------
 # PBE1PBE/def2TZVP empiricaldispersion=GD3BJ int=(grid=ultrafine) geom
 =check pop=nbo
 ----------------------------------------------------------------------

 ----------
 7abb_III_H
 ----------
 Structure from the checkpoint file:  "7abb_III_H.chk"
 Charge =  1 Multiplicity = 6

                         Standard orientation:
 ---------------------------------------------------------------------
 Center     Atomic      Atomic             Coordinates (Angstroms)
 Number     Number       Type             X           Y           Z
 ---------------------------------------------------------------------
      1          6           0       -0.046732   -0.771680    2.872277
      2         16           0       -1.374019    0.097309    2.012425
      3          1           0        0.289432   -1.591873    2.272962
      4          1           0       -0.409708   -1.139714    3.809134
      5         26           0       -1.393013    0.175637   -0.156078
      6          6           0        2.469015    0.105011   -0.134809
      7          6           0       -0.702768   -3.508412   -0.127255
      8          6           0       -4.387103   -0.315051   -0.256680
      9          6           0       -1.204393    3.271073   -0.679160
     10          7           0        0.560297   -1.411816   -0.163794
     11          6           0        1.927066   -1.144679   -0.084506
     12          6           0        2.700368   -2.363466    0.036107
     13          6           0        1.793213   -3.356639    0.047244
     14          6           0        0.473821   -2.787405   -0.078344
     15          6           0        2.051625   -4.871381    0.137036
     16          6           0        4.260308   -2.483431    0.174182
     17          6           0        4.996020   -2.558529   -1.157418
     18          6           0        6.485577   -2.727630   -0.910710
     19          8           0        7.202252   -2.678361   -1.936702
     20          8           0        6.886589   -2.901902    0.269841
     21          7           0       -2.285205   -1.608310   -0.252991
     22          6           0       -1.981957   -2.954429   -0.161782
     23          6           0       -3.220073   -3.670605   -0.089486
     24          6           0       -4.232574   -2.784444   -0.100024
     25          6           0       -3.671135   -1.484246   -0.227574
     26          6           0       -3.243681   -5.207673    0.028720
     27          6           0       -5.732514   -2.927017   -0.069017
     28          6           0       -6.267946   -4.256441    0.354683
     29          7           0       -2.490748    1.233963   -0.461067
     30          6           0       -3.829611    0.936224   -0.349303
     31          6           0       -4.584944    2.160107   -0.379665
     32          6           0       -3.713975    3.188509   -0.490274
     33          6           0       -2.395456    2.602370   -0.561507
     34          6           0       -6.109437    2.217437   -0.264343
     35          6           0       -3.945168    4.704736   -0.600992
     36          6           0       -5.269714    5.302264   -0.126744
     37          7           0        0.373989    1.374724   -0.399832
     38          6           0        0.030492    2.714569   -0.580823
     39          6           0        1.239206    3.475123   -0.631299
     40          6           0        2.381195    2.534373   -0.472415
     41          6           0        1.750275    1.242614   -0.310919
     42          6           0        1.320466    4.993381   -0.834072
     43          6           0        3.885682    2.856041   -0.466407
     44          6           0        4.300751    3.074676    0.968261
     45          6           0        5.799170    3.294304    1.047876
     46          8           0        6.280523    3.770718    2.098150
     47          8           0        6.480444    2.985312    0.049627
     48          1           0        3.441085    0.186790   -0.036949
     49          1           0       -0.633804   -4.486192   -0.137642
     50          1           0       -5.364731   -0.376313   -0.208931
     51          1           0       -1.248058    4.235840   -0.849197
     52          1           0        1.617417   -5.230010    0.938683
     53          1           0        3.016294   -5.035195    0.187300
     54          1           0        1.687021   -5.311970   -0.658928
     55          1           0        4.463806   -3.282984    0.684627
     56          1           0        4.587267   -1.712837    0.663807
     57          1           0        4.841886   -1.741358   -1.658077
     58          1           0        4.665500   -3.314794   -1.667143
     59          1           0       -3.717274   -5.582474   -0.730444
     60          1           0       -3.694149   -5.461825    0.849268
     61          1           0       -2.334717   -5.544860    0.041827
     62          1           0       -6.104464   -2.718677   -1.050417
     63          1           0       -5.948325   -4.941688   -0.253650
     64          1           0       -7.237200   -4.235182    0.338135
     65          1           0       -5.963499   -4.455558    1.254580
     66          1           0       -6.478346    2.627966   -1.062013
     67          1           0       -6.355683    2.741891    0.512886
     68          1           0       -6.460104    1.317888   -0.172694
     69          1           0       -3.163941    5.186527   -0.051028
     70          1           0       -5.099976    5.945229    0.579595
     71          1           0       -5.841275    4.595172    0.210628
     72          1           0       -5.708724    5.746624   -0.868977
     73          1           0        1.764054    5.402382   -0.062576
     74          1           0        0.416096    5.360116   -0.923545
     75          1           0        1.833441    5.186720   -1.646157
     76          1           0        4.052672    3.659589   -0.983009
     77          1           0        4.383479    2.113003   -0.843319
     78          1           0        4.061463    2.295686    1.493684
     79          1           0        3.842306    3.853824    1.320263
     80          1           0        7.747368   -3.430832   -2.178023
     81          1           0        6.906062    2.125910    0.006291
     82          1           0       -3.827262    4.970022   -1.630857
     83          1           0       -6.120962   -2.186493    0.598541
     84          1           0        0.767117   -0.098735    3.044599
     85          1           0       -2.326119    0.680880    2.697296
 ---------------------------------------------------------------------

 SCF Done:  E(UPBE1PBE) =  -3537.31757094     A.U. after   30 cycles

 Alpha virt. eigenvalues --    0.30813   0.31061   0.31501   0.31669   0.31824
 Alpha virt. eigenvalues --    0.32344   0.32597   0.32773   0.32965   0.33188
 Alpha virt. eigenvalues --    0.33620   0.33877   0.33970   0.34219   0.34261

  Beta  occ. eigenvalues -- -256.55091 -89.16535 -30.28822 -26.12046 -26.11888
  Beta  occ. eigenvalues --  -26.11816 -19.33772 -19.32661 -19.26329 -19.25232
  Beta  occ. eigenvalues --  -14.52475 -14.49133 -14.48328 -14.46980 -10.43493
  Beta  occ. eigenvalues --  -10.42354 -10.38266 -10.37813 -10.37139 -10.36553
  Beta  occ. eigenvalues --  -10.36262 -10.36075 -10.36056 -10.35464 -10.35390
  Beta  occ. eigenvalues --  -10.34965 -10.34877 -10.34200 -10.34115 -10.33149
  Beta  occ. eigenvalues --  -10.33129 -10.32878 -10.32545 -10.32478 -10.32449
  Beta  occ. eigenvalues --  -10.32362 -10.32318 -10.31931 -10.30885 -10.29656
  Beta  occ. eigenvalues --  -10.29174 -10.29148 -10.28677 -10.28629 -10.27657
  Beta  occ. eigenvalues --  -10.27374 -10.27315 -10.26062 -10.25065  -8.14881
  Beta  occ. eigenvalues --   -6.08527  -6.08211  -6.07669  -3.59120  -2.34593
  Beta  occ. eigenvalues --   -2.33935  -2.32966  -1.24450  -1.24007  -1.12714
  Beta  occ. eigenvalues --   -1.10565  -1.09692  -1.08713  -1.07375  -1.06233
  Beta  occ. eigenvalues --   -0.96688  -0.95411  -0.94625  -0.94180  -0.93755
  Beta  occ. eigenvalues --   -0.93303  -0.93228  -0.92725  -0.89964  -0.89336
  Beta  occ. eigenvalues --   -0.89068  -0.88570  -0.88196  -0.86222  -0.84854
  Beta  occ. eigenvalues --   -0.83751  -0.83109  -0.81783  -0.81279  -0.79815
  Beta  occ. eigenvalues --   -0.78731  -0.77940  -0.77685  -0.76647  -0.75595
  Beta  occ. eigenvalues --   -0.75083  -0.74327  -0.71673  -0.71110  -0.68260
  Beta  occ. eigenvalues --   -0.67511  -0.66765  -0.66302  -0.64580  -0.63667
  Beta  occ. eigenvalues --   -0.63159  -0.62431  -0.61622  -0.61248  -0.61014
  Beta  occ. eigenvalues --   -0.60646  -0.60318  -0.59544  -0.59339  -0.58793
  Beta  occ. eigenvalues --   -0.58352  -0.58113  -0.57303  -0.57175  -0.57066
  Beta  occ. eigenvalues --   -0.57002  -0.56510  -0.56379  -0.55558  -0.55452
  Beta  occ. eigenvalues --   -0.55313  -0.55248  -0.55012  -0.54752  -0.54580
  Beta  occ. eigenvalues --   -0.54505  -0.54221  -0.53886  -0.53327  -0.53257
  Beta  occ. eigenvalues --   -0.52662  -0.52548  -0.52394  -0.51999  -0.51353
  Beta  occ. eigenvalues --   -0.51142  -0.50930  -0.50648  -0.50034  -0.49777
  Beta  occ. eigenvalues --   -0.49633  -0.49175  -0.48687  -0.48125  -0.47973
  Beta  occ. eigenvalues --   -0.47780  -0.47259  -0.46999  -0.46945  -0.46624
  Beta  occ. eigenvalues --   -0.46213  -0.45594  -0.45031  -0.44931  -0.44793
  Beta  occ. eigenvalues --   -0.44306  -0.43242  -0.42694  -0.41953  -0.41224
  Beta  occ. eigenvalues --   -0.41140  -0.40907  -0.40482  -0.39557  -0.39172
  Beta  occ. eigenvalues --   -0.38932  -0.36187  -0.35172  -0.34862  -0.34091
  Beta  occ. eigenvalues --   -0.32766  -0.31547  -0.30804
  Beta virt. eigenvalues --   -0.22719  -0.21439  -0.19603  -0.19014  -0.17774
  Beta virt. eigenvalues --   -0.17226  -0.14527  -0.11984  -0.10683  -0.08932
  Beta virt. eigenvalues --   -0.08609  -0.07231  -0.06273  -0.05868  -0.05150

 Mulliken charges and spin densities:
               1          2
     1  C   -0.304183   0.026841
     2  S   -0.092598   0.125282
     3  H    0.182488  -0.000713
     4  H    0.183841   0.002834
     5  Fe   0.428315   4.166112
     6  C   -0.529607   0.025470
     7  C   -0.501614   0.027657
     8  C   -0.516338   0.009805
     9  C   -0.552307   0.012847
    10  N   -0.303919   0.044751
    11  C    0.377419  -0.010139
    12  C    0.010988   0.006997
    13  C   -0.051880   0.001026
    14  C    0.223956  -0.005001
    15  C   -0.352142   0.000495
    16  C   -0.399171   0.000376
    17  C   -0.202398   0.000165
    18  C    0.279935  -0.000027
    19  O   -0.337991   0.000007
    20  O   -0.344418   0.000026
    21  N   -0.086274   0.092258
    22  C    0.272846  -0.014817
    23  C   -0.083916   0.040575
    24  C   -0.117165  -0.001998
    25  C    0.367218   0.029836
    26  C   -0.333212   0.000395
    27  C   -0.202387   0.000630
    28  C   -0.356912   0.000205
    29  N   -0.159013   0.123764
    30  C    0.333693   0.013778
    31  C   -0.079391   0.039092
    32  C   -0.120550   0.071994
    33  C    0.250006  -0.004427
    34  C   -0.352873   0.000863
    35  C   -0.174314  -0.002065
    36  C   -0.331441   0.001203
    37  N   -0.175632   0.089560
    38  C    0.429751   0.014402
    39  C   -0.127965  -0.000091
    40  C    0.000668   0.054015
    41  C    0.280442  -0.014118
    42  C   -0.343721   0.001698
    43  C   -0.258117  -0.001135
    44  C   -0.224862   0.001801
    45  C    0.279776   0.000425
    46  O   -0.316237   0.000733
    47  O   -0.350794   0.000044
    48  H    0.133544  -0.001956
    49  H    0.144163  -0.001775
    50  H    0.137619   0.000326
    51  H    0.142417  -0.000317
    52  H    0.148632  -0.000018
    53  H    0.141813   0.000162
    54  H    0.146940  -0.000017
    55  H    0.157944   0.000157
    56  H    0.129840   0.000090
    57  H    0.131216   0.000028
    58  H    0.137190  -0.000027
    59  H    0.158089   0.000913
    60  H    0.152051   0.000938
    61  H    0.126934   0.000022
    62  H    0.129650   0.000110
    63  H    0.126814  -0.000003
    64  H    0.147822   0.000130
    65  H    0.128153   0.000011
    66  H    0.169046   0.001742
    67  H    0.152485   0.001601
    68  H    0.134634  -0.000074
    69  H    0.124742   0.001435
    70  H    0.138501   0.000081
    71  H    0.111463  -0.000043
    72  H    0.139061   0.000038
    73  H    0.149473  -0.000032
    74  H    0.118470  -0.000085
    75  H    0.155122   0.000028
    76  H    0.146131   0.000591
    77  H    0.111670   0.000507
    78  H    0.133757   0.000011
    79  H    0.135044  -0.000009
    80  H    0.365148   0.000002
    81  H    0.363428  -0.000002
    82  H    0.139128   0.003846
    83  H    0.107012   0.000006
    84  H    0.168861   0.002048
    85  H    0.197989   0.016104
 Sum of Mulliken charges =   1.00000   5.00000

 Dipole moment (field-independent basis, Debye):
    X=             -8.6565    Y=             -2.4687    Z=             -1.3740  Tot=              9.1059
 Quadrupole moment (field-independent basis, Debye-Ang):
   XX=           -195.7113   YY=           -206.0828   ZZ=           -265.0057
   XY=            -34.9587   XZ=            -38.4380   YZ=             -4.8842

 Summary of Natural Population Analysis:

                                       Natural Population
                Natural  -----------------------------------------------
    Atom  No    Charge         Core      Valence    Rydberg      Total
 -----------------------------------------------------------------------
      C    1   -0.33743      0.99960     2.33000    0.00783     3.33743
      S    2    0.20748      4.99899     2.77231    0.02121     7.79252
      H    3    0.13501      0.00000     0.36439    0.00061     0.36499
      H    4    0.12536      0.00000     0.37424    0.00040     0.37464
     Fe    5    2.31277      8.98551     1.68285    0.01886    10.68723
      C    6   -0.08445      0.99946     2.07667    0.00832     3.08445
      C    7   -0.08304      0.99950     2.07585    0.00769     3.08304
      C    8   -0.11836      0.99949     2.11100    0.00787     3.11836
      C    9   -0.09966      0.99948     2.09234    0.00784     3.09966
      N   10   -0.21049      0.99969     2.69133    0.01947     3.71049
      C   11    0.07373      0.99953     1.91713    0.00961     2.92627
      C   12   -0.00825      0.99934     1.99976    0.00914     3.00825
      C   13   -0.00396      0.99938     1.99678    0.00779     3.00396
      C   14    0.06961      0.99955     1.92084    0.01000     2.93039
      C   15   -0.30599      0.99958     2.30316    0.00325     3.30599
      C   16   -0.19127      0.99951     2.18527    0.00648     3.19127
      C   17   -0.24190      0.99950     2.23484    0.00755     3.24190
      C   18    0.38697      0.99979     1.59544    0.01780     2.61303
      O   19   -0.33506      0.99980     3.32106    0.01421     4.33506
      O   20   -0.28891      0.99990     3.27724    0.01177     4.28891
      N   21   -0.16428      0.99968     2.64642    0.01818     3.66428
      C   22    0.08172      0.99954     1.90873    0.01001     2.91828
      C   23    0.02236      0.99938     1.97030    0.00795     2.97764
      C   24   -0.00874      0.99941     2.00022    0.00910     3.00874
      C   25    0.09141      0.99952     1.90009    0.00898     2.90859
      C   26   -0.29908      0.99956     2.29626    0.00326     3.29908
      C   27   -0.20541      0.99969     2.19954    0.00618     3.20541
      C   28   -0.28692      0.99962     2.28463    0.00268     3.28692
      N   29   -0.11253      0.99941     2.59842    0.01471     3.61253
      C   30    0.09266      0.99950     1.89816    0.00969     2.90734
      C   31    0.02893      0.99940     1.96373    0.00793     2.97107
      C   32    0.04232      0.99941     1.94996    0.00830     2.95768
      C   33    0.08181      0.99951     1.90901    0.00967     2.91819
      C   34   -0.29965      0.99956     2.29670    0.00339     3.29965
      C   35   -0.21329      0.99968     2.20875    0.00487     3.21329
      C   36   -0.28832      0.99959     2.28566    0.00308     3.28832
      N   37   -0.17174      0.99969     2.65491    0.01714     3.67174
      C   38    0.06570      0.99948     1.92540    0.00942     2.93430
      C   39    0.01300      0.99957     1.98030    0.00714     2.98700
      C   40    0.03536      0.99957     1.95739    0.00768     2.96464
      C   41    0.06815      0.99948     1.92224    0.01013     2.93185
      C   42   -0.30681      0.99958     2.30390    0.00334     3.30681
      C   43   -0.20328      0.99955     2.19774    0.00599     3.20328
      C   44   -0.23777      0.99951     2.23067    0.00758     3.23777
      C   45    0.38445      0.99978     1.59756    0.01821     2.61555
      O   46   -0.26940      0.99989     3.25767    0.01184     4.26940
      O   47   -0.34439      0.99979     3.32969    0.01491     4.34439
      H   48    0.10367      0.00000     0.39535    0.00099     0.39633
      H   49    0.10533      0.00000     0.39338    0.00129     0.39467
      H   50    0.11227      0.00000     0.38594    0.00179     0.38773
      H   51    0.11100      0.00000     0.38725    0.00175     0.38900
      H   52    0.10769      0.00000     0.39164    0.00066     0.39231
      H   53    0.10813      0.00000     0.39123    0.00064     0.39187
      H   54    0.10780      0.00000     0.39154    0.00066     0.39220
      H   55    0.11163      0.00000     0.38771    0.00066     0.38837
      H   56    0.10298      0.00000     0.39601    0.00100     0.39702
      H   57    0.10734      0.00000     0.39199    0.00066     0.39266
      H   58    0.10963      0.00000     0.38973    0.00064     0.39037
      H   59    0.10969      0.00000     0.38963    0.00068     0.39031
      H   60    0.11001      0.00000     0.38932    0.00068     0.38999
      H   61    0.10216      0.00000     0.39731    0.00054     0.39784
      H   62    0.11087      0.00000     0.38829    0.00084     0.38913
      H   63    0.09946      0.00000     0.39986    0.00067     0.40054
      H   64    0.10523      0.00000     0.39422    0.00055     0.39477
      H   65    0.09902      0.00000     0.40032    0.00067     0.40098
      H   66    0.11321      0.00000     0.38617    0.00062     0.38679
      H   67    0.11037      0.00000     0.38897    0.00067     0.38963
      H   68    0.10424      0.00000     0.39522    0.00053     0.39576
      H   69    0.11126      0.00000     0.38798    0.00076     0.38874
      H   70    0.10515      0.00000     0.39435    0.00050     0.39485
      H   71    0.09898      0.00000     0.40033    0.00069     0.40102
      H   72    0.10507      0.00000     0.39443    0.00050     0.39493
      H   73    0.11034      0.00000     0.38896    0.00070     0.38966
      H   74    0.10287      0.00000     0.39655    0.00057     0.39713
      H   75    0.11160      0.00000     0.38772    0.00069     0.38840
      H   76    0.10851      0.00000     0.39048    0.00100     0.39149
      H   77    0.10222      0.00000     0.39655    0.00123     0.39778
      H   78    0.10864      0.00000     0.39076    0.00060     0.39136
      H   79    0.11266      0.00000     0.38670    0.00064     0.38734
      H   80    0.26195      0.00000     0.23684    0.00121     0.23805
      H   81    0.26129      0.00000     0.23754    0.00117     0.23871
      H   82    0.11745      0.00000     0.38178    0.00078     0.38255
      H   83    0.10458      0.00000     0.39463    0.00078     0.39542
      H   84    0.12196      0.00000     0.37752    0.00052     0.37804
      H   85    0.10527      0.00000     0.39294    0.00179     0.39473
 =======================================================================
   * Total *    3.00000     56.96592   115.56369    0.47039   173.00000

 Normal termination of Gaussian 16 at Thu Sep 15 20:13:45 2022.
