 Gaussian 16, Revision A.03,
 Gaussian 16:  ES64L-G16RevA.03 25-Dec-2016

 ----------------------------------------------------------------------
 # PBE1PBE/def2TZVP empiricaldispersion=GD3BJ scf=maxcycle=999 geom=che
 ck pop=nbo
 ----------------------------------------------------------------------

 ---------
 451c_II_Q
 ---------
 Structure from the checkpoint file:  "451c_II_Q.chk"
 Charge =  0 Multiplicity = 5

                         Standard orientation:
 ---------------------------------------------------------------------
 Center     Atomic      Atomic             Coordinates (Angstroms)
 Number     Number       Type             X           Y           Z
 ---------------------------------------------------------------------
      1          6           0        3.393295   -0.854867    4.988401
      2          6           0        2.363275   -0.508978    3.925814
      3          7           0        1.034173   -0.453374    4.181899
      4          6           0        2.548730   -0.333957    2.565861
      5          6           0        0.390107   -0.245561    3.003801
      6          7           0        1.318737   -0.164601    2.005665
      7          6           0       -0.804237    2.327292   -2.792125
      8          6           0        0.522934    1.585453   -2.992157
      9         16           0        0.588841   -0.071685   -2.252399
     10          6           0       -0.945281   -0.892485   -2.739703
     11          6           0       -2.464636   -0.039004    0.573976
     12          6           0        0.876162   -3.466805    0.035230
     13          6           0        4.205148   -0.072686   -0.803207
     14          6           0        0.997857    3.324169    0.362075
     15          6           0       -1.853709   -1.271821    0.468959
     16          6           0       -2.489721   -2.489576    0.592193
     17          6           0       -1.519140   -3.475070    0.489427
     18          6           0       -0.327823   -2.833874    0.251662
     19          6           0       -1.702937   -4.976351    0.582639
     20          6           0       -3.967911   -2.687218    0.761274
     21          6           0       -4.603178   -2.620754   -0.607907
     22          6           0       -6.104652   -2.808629   -0.504068
     23          8           0       -6.593533   -3.177315    0.560110
     24          8           0       -6.698363   -3.148107   -1.599201
     25          6           0        2.084675   -2.853297   -0.219407
     26          6           0        3.273456   -3.519626   -0.510320
     27          6           0        4.220326   -2.545216   -0.844828
     28          6           0        3.600102   -1.303616   -0.648485
     29          6           0        3.462952   -5.021208   -0.521973
     30          6           0        5.633203   -2.753981   -1.352955
     31          6           0        5.688020   -3.369498   -2.748270
     32          6           0        3.614044    1.161679   -0.580603
     33          6           0        4.272903    2.384609   -0.614192
     34          6           0        3.384640    3.334519   -0.118506
     35          6           0        2.173060    2.701405    0.020806
     36          6           0        5.732350    2.595123   -0.974208
     37          6           0        3.669916    4.780095    0.265985
     38          6           0        4.113733    5.634418   -0.916541
     39          6           0       -0.223163    2.708062    0.484248
     40          6           0       -1.420507    3.374793    0.722392
     41          6           0       -2.427300    2.418638    0.693964
     42          6           0       -1.810867    1.178847    0.534883
     43          6           0       -1.592616    4.866560    0.927591
     44          6           0       -3.911939    2.654871    0.827976
     45          6           0       -4.629756    2.643062   -0.512010
     46          6           0       -6.135750    2.779124   -0.295250
     47          8           0       -6.894364    2.290104   -1.136802
     48          8           0       -6.623440    3.662712    0.552568
     49          7           0       -0.538125   -1.490692    0.259041
     50          7           0        2.300544   -1.509329   -0.286124
     51          7           0        2.330468    1.371782   -0.194892
     52          7           0       -0.464508    1.361805    0.363168
     53         26           0        0.909356   -0.042011    0.078999
     54          1           0       -1.763205   -0.210477   -2.635950
     55          1           0       -0.872090   -1.209195   -3.759133
     56          1           0       -1.109041   -1.743854   -2.112604
     57          1           0       -0.669468    3.113354   -2.078793
     58          1           0       -1.124585    2.742921   -3.724610
     59          1           0       -1.544673    1.643206   -2.433402
     60          1           0        0.702093    1.492746   -4.042969
     61          1           0        1.306711    2.176152   -2.565931
     62          1           0        6.241528    3.047782   -0.149139
     63          1           0        6.184250    1.651374   -1.197867
     64          1           0        5.800092    3.234614   -1.829405
     65          1           0        5.225619   -0.070834   -1.124974
     66          1           0        2.562912   -5.496855   -0.192445
     67          1           0        3.693658   -5.343888   -1.515729
     68          1           0        4.266252   -5.284430    0.134018
     69          1           0        0.873560   -4.536307    0.067760
     70          1           0       -2.714403   -5.195672    0.854182
     71          1           0       -1.483388   -5.422079   -0.365002
     72          1           0       -1.040800   -5.371360    1.324557
     73          1           0       -4.367881   -1.914633    1.384200
     74          1           0       -4.157510   -3.643312    1.202677
     75          1           0       -4.395937   -1.667575   -1.047679
     76          1           0       -4.192507   -3.391793   -1.225764
     77          1           0       -7.612299   -2.894853   -1.748141
     78          1           0       -7.837832    2.461083   -1.089534
     79          1           0       -4.281471    3.459997   -1.108848
     80          1           0       -4.425214    1.721909   -1.016530
     81          1           0       -4.069573    3.604252    1.295657
     82          1           0       -4.328473    1.889910    1.449455
     83          1           0       -1.880250    5.056404    1.940570
     84          1           0       -0.668352    5.364114    0.720043
     85          1           0       -2.350754    5.232324    0.267027
     86          1           0       -3.527649   -0.024263    0.695167
     87          1           0        1.036798    4.377121    0.548292
     88          1           0        4.849851   -3.277349   -3.406967
     89          1           0        6.564623   -3.893226   -3.067919
     90          1           0        6.505240   -2.495488   -0.789365
     91          1           0        3.783256    6.648875   -0.997553
     92          1           0        4.755637    5.219442   -1.665309
     93          1           0        3.569396    5.157137    1.262295
     94          1           0        2.913945   -0.916826    5.943013
     95          1           0        3.844928   -1.796211    4.754308
     96          1           0        4.146208   -0.095090    5.016005
     97          1           0        3.485807   -0.332006    2.049349
     98          1           0        0.603325   -0.548463    5.079300
     99          1           0       -0.669075   -0.159584    2.878737
 ---------------------------------------------------------------------

 SCF Done:  E(UPBE1PBE) =  -3879.30396124     A.U. after   70 cycles

 Alpha virt. eigenvalues --    1.02405   1.02708   1.03064   1.03221   1.03256
 Alpha virt. eigenvalues --    1.03883   1.04038   1.04222   1.04606   1.05101
 Alpha virt. eigenvalues --    1.05290   1.05381   1.05717   1.05874   1.06223

  Beta  occ. eigenvalues -- -256.39582 -89.01831 -30.14115 -25.97596 -25.97277
  Beta  occ. eigenvalues --  -25.96372 -19.27830 -19.25101 -19.18330 -19.17122
  Beta  occ. eigenvalues --  -14.46652 -14.40229 -14.36847 -14.36418 -14.36234
  Beta  occ. eigenvalues --  -14.36173 -10.35958 -10.34986 -10.29897 -10.27433
  Beta  occ. eigenvalues --  -10.26141 -10.24878 -10.24786 -10.24176 -10.24066
  Beta  occ. eigenvalues --  -10.23821 -10.23783 -10.23731 -10.23410 -10.23356
  Beta  occ. eigenvalues --  -10.23341 -10.23047 -10.22918 -10.22838 -10.22804
  Beta  occ. eigenvalues --  -10.22681 -10.22610 -10.22203 -10.21743 -10.21740
  Beta  occ. eigenvalues --  -10.21595 -10.21547 -10.21530 -10.21375 -10.21143
  Beta  occ. eigenvalues --  -10.20908 -10.20844 -10.20803 -10.20750 -10.20580
  Beta  occ. eigenvalues --  -10.20444 -10.20146 -10.20068 -10.20061 -10.19905
  Beta  occ. eigenvalues --  -10.19368 -10.18932  -7.99799  -5.93470  -5.93138
  Beta  occ. eigenvalues --   -5.92562  -3.44768  -2.21049  -2.20417  -2.17025
  Beta  occ. eigenvalues --   -1.18407  -1.15188  -1.06864  -1.03376  -0.98817
  Beta  occ. eigenvalues --   -0.98603  -0.97980  -0.97200  -0.96573  -0.92398
  Beta  occ. eigenvalues --   -0.83944  -0.83533  -0.83507  -0.83027  -0.81549
  Beta  occ. eigenvalues --   -0.81149  -0.81028  -0.80626  -0.80261  -0.79116
  Beta  occ. eigenvalues --   -0.78356  -0.76330  -0.76092  -0.74845  -0.74318
  Beta  occ. eigenvalues --   -0.73677  -0.73131  -0.72811  -0.71288  -0.70340
  Beta  occ. eigenvalues --   -0.69942  -0.69312  -0.69096  -0.68147  -0.66650
  Beta  occ. eigenvalues --   -0.65886  -0.65723  -0.64277  -0.63339  -0.63182
  Beta  occ. eigenvalues --   -0.61919  -0.61011  -0.60062  -0.58508  -0.57799
  Beta  occ. eigenvalues --   -0.57220  -0.56316  -0.55130  -0.54726  -0.53360
  Beta  occ. eigenvalues --   -0.52675  -0.52041  -0.51831  -0.51356  -0.51033
  Beta  occ. eigenvalues --   -0.50928  -0.50537  -0.50180  -0.49295  -0.48784
  Beta  occ. eigenvalues --   -0.48728  -0.48540  -0.48437  -0.48161  -0.47660
  Beta  occ. eigenvalues --   -0.47326  -0.46539  -0.45658  -0.45449  -0.45343
  Beta  occ. eigenvalues --   -0.45012  -0.44806  -0.44633  -0.44296  -0.44147
  Beta  occ. eigenvalues --   -0.43821  -0.43667  -0.43576  -0.43273  -0.43109
  Beta  occ. eigenvalues --   -0.42923  -0.42798  -0.42466  -0.42081  -0.41988
  Beta  occ. eigenvalues --   -0.41435  -0.41380  -0.41124  -0.40843  -0.40456
  Beta  occ. eigenvalues --   -0.40419  -0.40116  -0.39786  -0.39552  -0.39277
  Beta  occ. eigenvalues --   -0.39188  -0.38840  -0.38688  -0.38474  -0.38020
  Beta  occ. eigenvalues --   -0.37861  -0.37792  -0.37634  -0.37550  -0.36990
  Beta  occ. eigenvalues --   -0.36537  -0.36379  -0.36304  -0.36068  -0.35718
  Beta  occ. eigenvalues --   -0.35276  -0.35013  -0.34820  -0.34677  -0.33476
  Beta  occ. eigenvalues --   -0.32851  -0.32723  -0.32321  -0.31988  -0.30934
  Beta  occ. eigenvalues --   -0.30753  -0.30352  -0.28350  -0.27936  -0.27378
  Beta  occ. eigenvalues --   -0.27131  -0.25824  -0.25445  -0.25195  -0.24902
  Beta  occ. eigenvalues --   -0.23882  -0.22682  -0.22636  -0.21976  -0.21130
  Beta  occ. eigenvalues --   -0.19004  -0.17993
  Beta virt. eigenvalues --   -0.08616  -0.07478  -0.05111  -0.04698  -0.03912
  Beta virt. eigenvalues --   -0.02814  -0.01711  -0.00985  -0.00053   0.00270
  Beta virt. eigenvalues --    0.00839   0.01896   0.01952   0.02275   0.03538

 Mulliken charges and spin densities:
               1          2
     1  C   -0.357200   0.001464
     2  C    0.120878   0.002843
     3  N   -0.204788   0.003447
     4  C   -0.183537   0.006283
     5  C   -0.006176   0.019027
     6  N    0.070293   0.042097
     7  C   -0.350378   0.001005
     8  C   -0.143810   0.003442
     9  S   -0.012701   0.082440
    10  C   -0.358259   0.004725
    11  C   -0.727982   0.317454
    12  C   -0.487869  -0.108730
    13  C   -0.589954   0.325454
    14  C   -0.499881  -0.125545
    15  C    0.243517  -0.050383
    16  C    0.114700   0.116651
    17  C   -0.075668  -0.026215
    18  C    0.209872   0.128464
    19  C   -0.399283   0.001341
    20  C   -0.355952  -0.015291
    21  C   -0.202354   0.004733
    22  C    0.272650   0.001704
    23  O   -0.330490   0.000198
    24  O   -0.361696   0.000300
    25  C    0.299417   0.119970
    26  C   -0.039404  -0.046267
    27  C   -0.055406   0.123806
    28  C    0.252537  -0.066617
    29  C   -0.350493   0.000970
    30  C   -0.267350  -0.051407
    31  C   -0.311781   0.058090
    32  C    0.342019  -0.057029
    33  C   -0.063413   0.135315
    34  C    0.046598  -0.030050
    35  C    0.175589   0.130558
    36  C   -0.364977  -0.010189
    37  C   -0.272272  -0.063420
    38  C   -0.280904   0.069633
    39  C    0.260962   0.130521
    40  C   -0.045056  -0.044347
    41  C    0.087201   0.129285
    42  C    0.235446  -0.064459
    43  C   -0.403536   0.001440
    44  C   -0.402812  -0.015830
    45  C   -0.122183   0.005491
    46  C    0.254020   0.000844
    47  O   -0.296609  -0.000040
    48  O   -0.440925  -0.000158
    49  N   -0.044506  -0.036561
    50  N   -0.004944  -0.015932
    51  N    0.014079  -0.027436
    52  N    0.089647  -0.032176
    53  Fe  -0.303029   2.915102
    54  H    0.123988  -0.000036
    55  H    0.150198   0.003181
    56  H    0.168104  -0.000032
    57  H    0.130611   0.000725
    58  H    0.120675   0.000322
    59  H    0.093090  -0.000204
    60  H    0.129906   0.003402
    61  H    0.148417  -0.000077
    62  H    0.133161   0.003945
    63  H    0.124417   0.000530
    64  H    0.120207   0.004229
    65  H    0.087081  -0.017224
    66  H    0.113646  -0.000112
    67  H    0.137069   0.000552
    68  H    0.126074   0.000015
    69  H    0.105022   0.004347
    70  H    0.128582  -0.000420
    71  H    0.137675  -0.000441
    72  H    0.135677  -0.000633
    73  H    0.121824   0.005424
    74  H    0.126475   0.001160
    75  H    0.126825  -0.000127
    76  H    0.140608  -0.000113
    77  H    0.336902   0.000150
    78  H    0.348131   0.000388
    79  H    0.136440  -0.000036
    80  H    0.124044  -0.000346
    81  H    0.142498   0.000962
    82  H    0.126826   0.006462
    83  H    0.144745  -0.000341
    84  H    0.123091  -0.000370
    85  H    0.133927   0.000202
    86  H    0.108887  -0.017673
    87  H    0.102092   0.004896
    88  H    0.149894  -0.002974
    89  H    0.129959  -0.000942
    90  H    0.136487   0.006684
    91  H    0.140992  -0.003681
    92  H    0.141948  -0.003275
    93  H    0.152997   0.002813
    94  H    0.116214   0.000179
    95  H    0.151801  -0.000005
    96  H    0.150255   0.000003
    97  H    0.170344   0.000951
    98  H    0.239316   0.001841
    99  H    0.191032  -0.000316
 Sum of Mulliken charges =  -0.00000   4.00000

 Dipole moment (field-independent basis, Debye):
    X=              0.4386    Y=             -0.3177    Z=              1.0527  Tot=              1.1839
 Quadrupole moment (field-independent basis, Debye-Ang):
   XX=           -325.1864   YY=           -333.0328   ZZ=           -288.1823
   XY=              4.8074   XZ=             41.1145   YZ=             -7.6751

 Summary of Natural Population Analysis:

                                       Natural Population
                Natural  -----------------------------------------------
    Atom  No    Charge         Core      Valence    Rydberg      Total
 -----------------------------------------------------------------------
      C    1   -0.31833      0.99970     2.31550    0.00312     3.31833
      C    2    0.05655      0.99959     1.93422    0.00964     2.94345
      N    3   -0.23456      0.99968     2.72526    0.00962     3.73456
      C    4   -0.02253      0.99948     2.01417    0.00888     3.02253
      C    5    0.10581      0.99967     1.88436    0.01016     2.89419
      N    6   -0.15112      0.99971     2.62929    0.02211     3.65112
      C    7   -0.31109      0.99972     2.30566    0.00571     3.31109
      C    8   -0.26040      0.99964     2.25178    0.00898     3.26040
      S    9    0.31897      4.99923     2.66247    0.01932     7.68103
      C   10   -0.36831      0.99963     2.36025    0.00843     3.36831
      C   11   -0.05086      0.99948     2.04227    0.00910     3.05086
      C   12   -0.12202      0.99950     2.11418    0.00834     3.12202
      C   13   -0.02218      0.99949     2.01455    0.00814     3.02218
      C   14   -0.13350      0.99948     2.12557    0.00844     3.13350
      C   15    0.06228      0.99944     1.92734    0.01093     2.93772
      C   16    0.01847      0.99944     1.97219    0.00990     2.98153
      C   17   -0.00547      0.99926     1.99475    0.01146     3.00547
      C   18    0.08453      0.99943     1.90438    0.01165     2.91547
      C   19   -0.32029      0.99971     2.31700    0.00359     3.32029
      C   20   -0.21161      0.99968     2.20400    0.00794     3.21161
      C   21   -0.24711      0.99962     2.23885    0.00864     3.24711
      C   22    0.37728      0.99974     1.60502    0.01796     2.62272
      O   23   -0.28579      0.99988     3.27307    0.01284     4.28579
      O   24   -0.33941      0.99984     3.32648    0.01309     4.33941
      C   25    0.08967      0.99945     1.89957    0.01131     2.91033
      C   26   -0.00466      0.99945     1.99660    0.00861     3.00466
      C   27   -0.01044      0.99942     1.99999    0.01103     3.01044
      C   28    0.06651      0.99947     1.92332    0.01070     2.93349
      C   29   -0.31612      0.99970     2.31250    0.00392     3.31612
      C   30   -0.11231      0.99972     2.10574    0.00686     3.11231
      C   31   -0.17032      0.99975     2.16556    0.00501     3.17032
      C   32    0.06239      0.99946     1.92720    0.01096     2.93761
      C   33    0.04066      0.99943     1.95126    0.00866     2.95934
      C   34   -0.04820      0.99937     2.03790    0.01093     3.04820
      C   35    0.09512      0.99942     1.89399    0.01147     2.90488
      C   36   -0.31742      0.99970     2.31400    0.00371     3.31742
      C   37   -0.11657      0.99973     2.10985    0.00699     3.11657
      C   38   -0.15433      0.99975     2.14927    0.00531     3.15433
      C   39    0.09599      0.99943     1.89280    0.01178     2.90401
      C   40   -0.01390      0.99944     2.00592    0.00854     3.01390
      C   41    0.02410      0.99943     1.96708    0.00939     2.97590
      C   42    0.06279      0.99945     1.92698    0.01078     2.93721
      C   43   -0.31770      0.99970     2.31409    0.00391     3.31770
      C   44   -0.21195      0.99967     2.20488    0.00741     3.21195
      C   45   -0.24198      0.99962     2.23370    0.00866     3.24198
      C   46    0.37882      0.99978     1.60255    0.01885     2.62118
      O   47   -0.31473      0.99979     3.30077    0.01417     4.31473
      O   48   -0.32362      0.99992     3.31812    0.00558     4.32362
      N   49   -0.21023      0.99968     2.68631    0.02424     3.71023
      N   50   -0.19994      0.99968     2.67660    0.02366     3.69994
      N   51   -0.20385      0.99967     2.68093    0.02324     3.70385
      N   52   -0.20763      0.99967     2.68504    0.02292     3.70763
     Fe   53    1.50242      8.99569     2.47140    0.03049    11.49758
      H   54    0.10884      0.00000     0.39030    0.00086     0.39116
      H   55    0.11113      0.00000     0.38830    0.00057     0.38887
      H   56    0.12799      0.00000     0.37149    0.00052     0.37201
      H   57    0.11348      0.00000     0.38580    0.00072     0.38652
      H   58    0.10447      0.00000     0.39497    0.00057     0.39553
      H   59    0.10387      0.00000     0.39481    0.00132     0.39613
      H   60    0.10937      0.00000     0.38993    0.00070     0.39063
      H   61    0.12420      0.00000     0.37504    0.00076     0.37580
      H   62    0.11230      0.00000     0.38687    0.00083     0.38770
      H   63    0.10862      0.00000     0.39080    0.00058     0.39138
      H   64    0.10830      0.00000     0.39089    0.00081     0.39170
      H   65    0.10464      0.00000     0.39408    0.00128     0.39536
      H   66    0.10400      0.00000     0.39540    0.00060     0.39600
      H   67    0.11366      0.00000     0.38552    0.00083     0.38634
      H   68    0.11115      0.00000     0.38805    0.00080     0.38885
      H   69    0.10708      0.00000     0.39144    0.00147     0.39292
      H   70    0.10908      0.00000     0.39018    0.00074     0.39092
      H   71    0.10945      0.00000     0.38971    0.00084     0.39055
      H   72    0.10951      0.00000     0.38966    0.00083     0.39049
      H   73    0.11180      0.00000     0.38718    0.00102     0.38820
      H   74    0.11431      0.00000     0.38496    0.00073     0.38569
      H   75    0.11353      0.00000     0.38572    0.00076     0.38647
      H   76    0.12024      0.00000     0.37905    0.00071     0.37976
      H   77    0.25194      0.00000     0.24665    0.00140     0.24806
      H   78    0.25652      0.00000     0.24189    0.00159     0.24348
      H   79    0.12154      0.00000     0.37778    0.00068     0.37846
      H   80    0.11069      0.00000     0.38852    0.00078     0.38931
      H   81    0.11955      0.00000     0.37974    0.00071     0.38045
      H   82    0.10916      0.00000     0.38977    0.00107     0.39084
      H   83    0.11124      0.00000     0.38795    0.00082     0.38876
      H   84    0.10784      0.00000     0.39154    0.00062     0.39216
      H   85    0.10989      0.00000     0.38936    0.00075     0.39011
      H   86    0.10185      0.00000     0.39706    0.00109     0.39815
      H   87    0.11017      0.00000     0.38834    0.00149     0.38983
      H   88    0.09868      0.00000     0.40054    0.00078     0.40132
      H   89    0.09403      0.00000     0.40521    0.00076     0.40597
      H   90    0.10612      0.00000     0.39296    0.00092     0.39388
      H   91    0.09547      0.00000     0.40371    0.00083     0.40453
      H   92    0.09593      0.00000     0.40307    0.00100     0.40407
      H   93    0.10809      0.00000     0.39097    0.00094     0.39191
      H   94    0.10640      0.00000     0.39301    0.00059     0.39360
      H   95    0.11612      0.00000     0.38328    0.00061     0.38388
      H   96    0.11596      0.00000     0.38345    0.00059     0.38404
      H   97    0.12075      0.00000     0.37845    0.00081     0.37925
      H   98    0.21152      0.00000     0.28768    0.00080     0.28848
      H   99    0.11768      0.00000     0.38145    0.00087     0.38232
 =======================================================================
   * Total *    2.00002     64.97451   136.39903    0.62644   201.99998

 Normal termination of Gaussian 16 at Thu Feb  9 11:58:51 2023.
