 Gaussian 16, Revision A.03,
 Gaussian 16:  ES64L-G16RevA.03 25-Dec-2016

 ----------------------------------------------------------------------
 # PBE1PBE/def2TZVP empiricaldispersion=GD3BJ scf=maxcycle=999 geom=che
 ck pop=nbo
 ----------------------------------------------------------------------

 ----------
 1cxc_III_H
 ----------
 Structure from the checkpoint file:  "1cxc_III_H.chk"
 Charge =  1 Multiplicity = 6

                         Standard orientation:
 ---------------------------------------------------------------------
 Center     Atomic      Atomic             Coordinates (Angstroms)
 Number     Number       Type             X           Y           Z
 ---------------------------------------------------------------------
      1          6           0        2.696950   -1.802421    4.862558
      2          6           0        1.755409   -1.282022    3.774029
      3          7           0        0.364424   -1.370551    3.887166
      4          6           0        2.109695   -0.798069    2.530276
      5          6           0       -0.085529   -0.928021    2.692068
      6          7           0        0.875895   -0.600703    1.884125
      7          6           0       -0.614060    3.099490   -2.664315
      8          6           0        0.712625    2.342734   -2.619238
      9         16           0        0.519372    0.555136   -2.318269
     10          6           0        1.842575   -0.033833   -3.300173
     11         26           0        0.755783   -0.067386   -0.057266
     12          6           0       -2.624426   -0.135793    0.060431
     13          6           0        0.820637   -3.390412   -0.802439
     14          6           0        4.168467    0.059620   -0.352581
     15          6           0        0.750698    3.189102    0.994823
     16          7           0       -0.606837   -1.466726   -0.353662
     17          6           0       -1.982683   -1.315000   -0.277306
     18          6           0       -2.658953   -2.562205   -0.589497
     19          6           0       -1.696791   -3.474485   -0.861144
     20          6           0       -0.427221   -2.792289   -0.678007
     21          6           0       -1.933142   -4.891036   -1.365853
     22          6           0       -4.154488   -2.838469   -0.534509
     23          6           0       -4.515216   -3.532218    0.769660
     24          6           0       -5.992850   -3.547930    1.127351
     25          8           0       -6.303814   -3.368755    2.286486
     26          8           0       -6.814597   -3.544247    0.217068
     27          7           0        2.170944   -1.366176   -0.500680
     28          6           0        2.027952   -2.731208   -0.703436
     29          6           0        3.319770   -3.370873   -0.888791
     30          6           0        4.280354   -2.395356   -0.845012
     31          6           0        3.552636   -1.157257   -0.587559
     32          6           0        3.545480   -4.872386   -1.103371
     33          6           0        5.675172   -2.561132   -1.081529
     34          6           0        6.172237   -3.022260   -2.464239
     35          7           0        2.140401    1.333608    0.214006
     36          6           0        3.514454    1.212135    0.029454
     37          6           0        4.200065    2.425612    0.427126
     38          6           0        3.243115    3.304280    0.804968
     39          6           0        1.971984    2.617356    0.684988
     40          6           0        5.703040    2.586150    0.602399
     41          6           0        3.435187    4.601558    1.269489
     42          6           0        4.149461    5.614921    0.506610
     43          7           0       -0.622963    1.225613    0.437044
     44          6           0       -0.468171    2.542545    0.865871
     45          6           0       -1.749869    3.184099    1.062841
     46          6           0       -2.698313    2.278760    0.735407
     47          6           0       -1.998005    1.059743    0.378225
     48          6           0       -1.992886    4.623551    1.511678
     49          6           0       -4.167940    2.579401    0.483323
     50          6           0       -4.465699    2.664210   -1.012915
     51          6           0       -5.727189    3.462400   -1.373069
     52          8           0       -5.894836    3.787021   -2.539477
     53          8           0       -6.668257    3.448155   -0.597356
     54          1           0        2.369471    0.795750   -3.723343
     55          1           0        2.510189   -0.607626   -2.691936
     56          1           0        1.457190   -0.649772   -4.085665
     57          1           0       -0.769186    3.489064   -3.648727
     58          1           0       -1.413275    2.433427   -2.414286
     59          1           0       -0.588741    3.905905   -1.961496
     60          1           0        1.216519    2.479847   -3.553150
     61          1           0        1.316691    2.757532   -1.839528
     62          1           0        3.288347   -0.994038    5.238945
     63          1           0        2.121616   -2.224785    5.659740
     64          1           0        3.339166   -2.552276    4.450034
     65          1           0       -0.171961   -1.687256    4.669463
     66          1           0       -1.122694   -0.855360    2.439265
     67          1           0        3.092232   -0.615913    2.147732
     68          1           0        6.377580   -2.365267   -0.298484
     69          1           0        6.679769   -2.214288   -2.948484
     70          1           0        6.844983   -3.845727   -2.345012
     71          1           0        5.337323   -3.327160   -3.059936
     72          1           0        4.237634   -5.017855   -1.906280
     73          1           0        3.941370   -5.305034   -0.208392
     74          1           0        2.614930   -5.341971   -1.345167
     75          1           0        5.230083    0.109981   -0.476414
     76          1           0        5.976872    3.604023    0.418415
     77          1           0        5.976209    2.318352    1.601680
     78          1           0        6.212904    1.948961   -0.089648
     79          1           0        3.490907    6.430803    0.293203
     80          1           0        4.982879    5.968980    1.076659
     81          1           0        4.499615    5.189842   -0.410777
     82          1           0        3.041023    4.865719    2.228527
     83          1           0        0.747155    4.195751    1.357513
     84          1           0        0.846967   -4.443607   -0.989487
     85          1           0       -1.522890   -4.992525   -2.348856
     86          1           0       -1.458276   -5.588123   -0.707468
     87          1           0       -2.984393   -5.088170   -1.396003
     88          1           0       -4.687822   -1.913345   -0.602343
     89          1           0       -4.428737   -3.466018   -1.356621
     90          1           0       -4.175970   -4.545401    0.712444
     91          1           0       -3.986135   -3.046064    1.562521
     92          1           0       -6.798182   -2.846027   -0.441583
     93          1           0       -3.694218   -0.147930    0.077705
     94          1           0       -2.423229    5.180597    0.705821
     95          1           0       -2.662383    4.628693    2.346331
     96          1           0       -1.063303    5.069843    1.797335
     97          1           0       -4.418987    3.511919    0.944069
     98          1           0       -4.763743    1.802953    0.915811
     99          1           0       -3.628123    3.120211   -1.498127
    100          1           0       -4.576369    1.669616   -1.391642
    101          1           0       -7.339523    4.132833   -0.644439
 ---------------------------------------------------------------------

 SCF Done:  E(UPBE1PBE) =  -3880.37990719     A.U. after   89 cycles

 Alpha virt. eigenvalues --    0.94124   0.94400   0.94557   0.95109   0.95273
 Alpha virt. eigenvalues --    0.95394   0.96034   0.96122   0.96400   0.96638
 Alpha virt. eigenvalues --    0.96885   0.97068   0.97391   0.97558   0.97983

  Beta  occ. eigenvalues -- -256.51658 -89.12390 -30.26295 -26.10455 -26.09198
  Beta  occ. eigenvalues --  -26.08108 -19.33551 -19.32458 -19.24562 -19.23969
  Beta  occ. eigenvalues --  -14.54930 -14.50187 -14.50114 -14.49572 -14.48358
  Beta  occ. eigenvalues --  -14.48287 -10.41755 -10.41539 -10.38567 -10.36796
  Beta  occ. eigenvalues --  -10.36273 -10.36124 -10.36097 -10.35986 -10.35960
  Beta  occ. eigenvalues --  -10.35762 -10.35670 -10.35660 -10.34187 -10.33546
  Beta  occ. eigenvalues --  -10.32866 -10.32788 -10.32701 -10.32681 -10.32631
  Beta  occ. eigenvalues --  -10.32544 -10.32442 -10.32362 -10.32304 -10.32273
  Beta  occ. eigenvalues --  -10.32254 -10.32232 -10.32178 -10.31734 -10.31474
  Beta  occ. eigenvalues --  -10.31374 -10.31341 -10.31244 -10.30606 -10.30544
  Beta  occ. eigenvalues --  -10.30526 -10.30382 -10.30262 -10.30260 -10.29719
  Beta  occ. eigenvalues --  -10.29153 -10.29126  -8.10403  -6.04032  -6.03729
  Beta  occ. eigenvalues --   -6.03239  -3.56910  -2.34534  -2.30266  -2.30072
  Beta  occ. eigenvalues --   -1.25936  -1.24932  -1.15553  -1.11132  -1.10145
  Beta  occ. eigenvalues --   -1.09113  -1.08084  -1.07828  -1.06850  -1.01414
  Beta  occ. eigenvalues --   -0.94463  -0.94228  -0.93694  -0.93477  -0.92943
  Beta  occ. eigenvalues --   -0.92236  -0.91652  -0.91260  -0.89927  -0.88747
  Beta  occ. eigenvalues --   -0.88238  -0.86663  -0.86490  -0.86119  -0.85320
  Beta  occ. eigenvalues --   -0.83610  -0.82154  -0.81905  -0.81567  -0.81456
  Beta  occ. eigenvalues --   -0.79514  -0.78737  -0.77962  -0.76445  -0.76207
  Beta  occ. eigenvalues --   -0.76112  -0.74923  -0.74752  -0.74076  -0.72637
  Beta  occ. eigenvalues --   -0.72278  -0.71849  -0.70516  -0.69681  -0.68540
  Beta  occ. eigenvalues --   -0.66349  -0.65919  -0.65178  -0.64475  -0.64144
  Beta  occ. eigenvalues --   -0.62982  -0.62338  -0.61807  -0.61424  -0.60220
  Beta  occ. eigenvalues --   -0.59815  -0.59352  -0.59084  -0.59000  -0.58696
  Beta  occ. eigenvalues --   -0.58386  -0.58081  -0.57299  -0.57028  -0.56279
  Beta  occ. eigenvalues --   -0.55993  -0.55898  -0.55431  -0.55039  -0.54927
  Beta  occ. eigenvalues --   -0.54543  -0.54506  -0.54363  -0.54220  -0.53799
  Beta  occ. eigenvalues --   -0.53744  -0.53556  -0.53446  -0.52991  -0.52806
  Beta  occ. eigenvalues --   -0.52330  -0.51993  -0.51927  -0.51853  -0.51687
  Beta  occ. eigenvalues --   -0.51456  -0.51312  -0.50804  -0.50682  -0.50536
  Beta  occ. eigenvalues --   -0.50268  -0.50143  -0.49908  -0.49626  -0.49468
  Beta  occ. eigenvalues --   -0.49226  -0.48948  -0.48844  -0.48501  -0.48139
  Beta  occ. eigenvalues --   -0.47998  -0.47749  -0.47732  -0.47613  -0.47255
  Beta  occ. eigenvalues --   -0.46815  -0.46749  -0.46647  -0.46354  -0.45696
  Beta  occ. eigenvalues --   -0.45662  -0.45185  -0.44886  -0.44743  -0.44465
  Beta  occ. eigenvalues --   -0.44418  -0.43839  -0.43553  -0.43192  -0.42930
  Beta  occ. eigenvalues --   -0.42608  -0.41639  -0.40035  -0.39451  -0.39142
  Beta  occ. eigenvalues --   -0.38733  -0.38050  -0.36650  -0.35551  -0.35133
  Beta  occ. eigenvalues --   -0.34454  -0.34297  -0.34050  -0.33587  -0.32642
  Beta  occ. eigenvalues --   -0.30136  -0.29469
  Beta virt. eigenvalues --   -0.19655  -0.18096  -0.17970  -0.15424  -0.13989
  Beta virt. eigenvalues --   -0.13347  -0.11281  -0.10017  -0.09705  -0.07835
  Beta virt. eigenvalues --   -0.07721  -0.07087  -0.06652  -0.06281  -0.06276

 Mulliken charges and spin densities:
               1          2
     1  C   -0.363104   0.000706
     2  C    0.125830   0.002156
     3  N   -0.218289   0.002056
     4  C   -0.196729   0.001411
     5  C    0.009065   0.005058
     6  N    0.071534   0.022219
     7  C   -0.394672  -0.000930
     8  C   -0.152548   0.004281
     9  S    0.038808   0.048343
    10  C   -0.343989  -0.002615
    11  Fe  -0.423936   2.983318
    12  C   -0.533443  -0.036862
    13  C   -0.495890   0.023425
    14  C   -0.516833   0.034868
    15  C   -0.521206  -0.014002
    16  N    0.024951   0.007607
    17  C    0.281233   0.041495
    18  C    0.038776  -0.000843
    19  C   -0.089866   0.032145
    20  C    0.248105  -0.005881
    21  C   -0.386894  -0.001406
    22  C   -0.431576   0.000528
    23  C   -0.166128   0.000025
    24  C    0.252602   0.000069
    25  O   -0.303654   0.000091
    26  O   -0.296500   0.000012
    27  N    0.011658  -0.047928
    28  C    0.371552  -0.016363
    29  C   -0.099034   0.093189
    30  C    0.065504  -0.135069
    31  C    0.118081   0.013321
    32  C   -0.354735  -0.005230
    33  C   -0.269431   1.003745
    34  C   -0.349565  -0.061508
    35  N    0.002568   0.036869
    36  C    0.380425  -0.025903
    37  C   -0.177697   0.189815
    38  C    0.137282  -0.147281
    39  C    0.139353   0.055972
    40  C   -0.351690  -0.009899
    41  C   -0.246395   0.911350
    42  C   -0.340321  -0.057927
    43  N    0.099700  -0.095460
    44  C    0.333319   0.028823
    45  C   -0.048525   0.001566
    46  C   -0.039662  -0.001538
    47  C    0.277452   0.036212
    48  C   -0.420315  -0.001121
    49  C   -0.245655  -0.000506
    50  C   -0.201405   0.000282
    51  C    0.225567   0.000114
    52  O   -0.339991   0.000047
    53  O   -0.302163  -0.000006
    54  H    0.147253   0.000634
    55  H    0.146820   0.002038
    56  H    0.163517   0.000851
    57  H    0.150101  -0.000169
    58  H    0.138196   0.000041
    59  H    0.125753   0.000282
    60  H    0.143894   0.001435
    61  H    0.134365   0.001319
    62  H    0.155453   0.000027
    63  H    0.130373   0.000071
    64  H    0.153899  -0.000012
    65  H    0.258929   0.001456
    66  H    0.187174   0.000760
    67  H    0.175042   0.000823
    68  H    0.149505  -0.048308
    69  H    0.147786   0.036512
    70  H    0.145702   0.023891
    71  H    0.137019   0.001494
    72  H    0.145167   0.001718
    73  H    0.154933   0.003822
    74  H    0.127920  -0.000412
    75  H    0.124281   0.003175
    76  H    0.149521   0.002150
    77  H    0.152914   0.009170
    78  H    0.136610   0.000818
    79  H    0.148262   0.040138
    80  H    0.145803   0.038500
    81  H    0.136997  -0.000161
    82  H    0.140352  -0.044301
    83  H    0.115788   0.005528
    84  H    0.123802  -0.000780
    85  H    0.157270   0.001177
    86  H    0.148584   0.001093
    87  H    0.140221   0.000244
    88  H    0.114890  -0.000081
    89  H    0.158899   0.000135
    90  H    0.127719   0.000014
    91  H    0.121427   0.000110
    92  H    0.355008   0.000004
    93  H    0.120798   0.001650
    94  H    0.154474   0.000281
    95  H    0.159131   0.000232
    96  H    0.135661   0.000091
    97  H    0.129584  -0.000275
    98  H    0.130170   0.000000
    99  H    0.136633  -0.000027
   100  H    0.125880  -0.000011
   101  H    0.358998   0.000015
 Sum of Mulliken charges =   1.00000   5.00000

 Dipole moment (field-independent basis, Debye):
    X=              6.9686    Y=              0.4425    Z=              2.0885  Tot=              7.2883
 Quadrupole moment (field-independent basis, Debye-Ang):
   XX=           -257.5655   YY=           -255.0787   ZZ=           -293.3571
   XY=            -16.0390   XZ=              4.7871   YZ=             20.5094

 Summary of Natural Population Analysis:

                                       Natural Population
                Natural  -----------------------------------------------
    Atom  No    Charge         Core      Valence    Rydberg      Total
 -----------------------------------------------------------------------
      C    1   -0.32101      0.99969     2.31829    0.00302     3.32101
      C    2    0.07164      0.99958     1.92029    0.00849     2.92836
      N    3   -0.24410      0.99971     2.73503    0.00936     3.74410
      C    4   -0.04628      0.99946     2.03822    0.00860     3.04628
      C    5    0.11065      0.99962     1.87903    0.01070     2.88935
      N    6   -0.17152      0.99968     2.64321    0.02863     3.67152
      C    7   -0.31157      0.99973     2.30550    0.00634     3.31157
      C    8   -0.25609      0.99964     2.24704    0.00940     3.25609
      S    9    0.31372      4.99926     2.66506    0.02196     7.68628
      C   10   -0.38479      0.99966     2.37615    0.00898     3.38479
     Fe   11    1.56737      8.99496     2.40659    0.03108    11.43263
      C   12   -0.13200      0.99948     2.12430    0.00823     3.13200
      C   13   -0.09966      0.99948     2.09237    0.00781     3.09966
      C   14   -0.11052      0.99946     2.10293    0.00812     3.11052
      C   15   -0.12543      0.99947     2.11804    0.00792     3.12543
      N   16   -0.18515      0.99968     2.66775    0.01771     3.68515
      C   17    0.09879      0.99950     1.89179    0.00992     2.90121
      C   18   -0.00723      0.99941     1.99804    0.00979     3.00723
      C   19    0.01300      0.99941     1.97943    0.00816     2.98700
      C   20    0.08306      0.99952     1.90752    0.00991     2.91694
      C   21   -0.32088      0.99969     2.31746    0.00372     3.32088
      C   22   -0.21841      0.99966     2.21111    0.00764     3.21841
      C   23   -0.25548      0.99963     2.24735    0.00849     3.25548
      C   24    0.38380      0.99974     1.59738    0.01908     2.61620
      O   25   -0.27239      0.99988     3.25953    0.01298     4.27239
      O   26   -0.33176      0.99977     3.31618    0.01582     4.33176
      N   27   -0.22588      0.99968     2.70086    0.02535     3.72588
      C   28    0.06713      0.99949     1.92279    0.01059     2.93287
      C   29    0.05781      0.99940     1.93473    0.00806     2.94219
      C   30   -0.10787      0.99946     2.09872    0.00969     3.10787
      C   31    0.10148      0.99949     1.88905    0.00998     2.89852
      C   32   -0.32016      0.99970     2.31692    0.00354     3.32016
      C   33    0.41606      0.99965     1.57762    0.00668     2.58394
      C   34   -0.35337      0.99972     2.35052    0.00314     3.35337
      N   35   -0.17864      0.99969     2.66156    0.01739     3.67864
      C   36    0.06966      0.99950     1.92094    0.00991     2.93034
      C   37    0.09366      0.99941     1.89860    0.00832     2.90634
      C   38   -0.11328      0.99944     2.10384    0.00999     3.11328
      C   39    0.13287      0.99951     1.85768    0.00994     2.86713
      C   40   -0.32237      0.99969     2.31912    0.00355     3.32237
      C   41    0.37696      0.99963     1.61609    0.00732     2.62304
      C   42   -0.35518      0.99971     2.34916    0.00630     3.35518
      N   43   -0.24293      0.99967     2.71578    0.02748     3.74293
      C   44    0.09378      0.99949     1.89572    0.01102     2.90622
      C   45   -0.00065      0.99935     1.99276    0.00854     3.00065
      C   46   -0.00872      0.99940     2.00017    0.00914     3.00872
      C   47    0.09243      0.99949     1.89764    0.01044     2.90757
      C   48   -0.31982      0.99970     2.31630    0.00382     3.31982
      C   49   -0.21687      0.99967     2.21014    0.00706     3.21687
      C   50   -0.24638      0.99963     2.23804    0.00871     3.24638
      C   51    0.37893      0.99977     1.60161    0.01969     2.62107
      O   52   -0.29524      0.99988     3.28228    0.01307     4.29524
      O   53   -0.32255      0.99978     3.30832    0.01445     4.32255
      H   54    0.11856      0.00000     0.38080    0.00064     0.38144
      H   55    0.12193      0.00000     0.37735    0.00072     0.37807
      H   56    0.11953      0.00000     0.38003    0.00044     0.38047
      H   57    0.11289      0.00000     0.38663    0.00048     0.38711
      H   58    0.10932      0.00000     0.38951    0.00117     0.39068
      H   59    0.10942      0.00000     0.39007    0.00051     0.39058
      H   60    0.11471      0.00000     0.38461    0.00069     0.38529
      H   61    0.11425      0.00000     0.38473    0.00102     0.38575
      H   62    0.11770      0.00000     0.38174    0.00057     0.38230
      H   63    0.11073      0.00000     0.38872    0.00055     0.38927
      H   64    0.11775      0.00000     0.38170    0.00055     0.38225
      H   65    0.21800      0.00000     0.28122    0.00078     0.28200
      H   66    0.11145      0.00000     0.38762    0.00093     0.38855
      H   67    0.12224      0.00000     0.37694    0.00082     0.37776
      H   68    0.08298      0.00000     0.41620    0.00082     0.41702
      H   69    0.13347      0.00000     0.36605    0.00048     0.36653
      H   70    0.12628      0.00000     0.37319    0.00053     0.37372
      H   71    0.10924      0.00000     0.39014    0.00062     0.39076
      H   72    0.11638      0.00000     0.38291    0.00071     0.38362
      H   73    0.11821      0.00000     0.38112    0.00066     0.38179
      H   74    0.10878      0.00000     0.39064    0.00058     0.39122
      H   75    0.11774      0.00000     0.38105    0.00121     0.38226
      H   76    0.11693      0.00000     0.38237    0.00069     0.38307
      H   77    0.11952      0.00000     0.37982    0.00066     0.38048
      H   78    0.11081      0.00000     0.38862    0.00057     0.38919
      H   79    0.13793      0.00000     0.36166    0.00041     0.36207
      H   80    0.13438      0.00000     0.36514    0.00047     0.36562
      H   81    0.10966      0.00000     0.38975    0.00059     0.39034
      H   82    0.08360      0.00000     0.41556    0.00084     0.41640
      H   83    0.11669      0.00000     0.38206    0.00125     0.38331
      H   84    0.11379      0.00000     0.38491    0.00130     0.38621
      H   85    0.11735      0.00000     0.38196    0.00069     0.38265
      H   86    0.11535      0.00000     0.38397    0.00068     0.38465
      H   87    0.11227      0.00000     0.38707    0.00066     0.38773
      H   88    0.10089      0.00000     0.39793    0.00117     0.39911
      H   89    0.11430      0.00000     0.38486    0.00084     0.38570
      H   90    0.11648      0.00000     0.38289    0.00063     0.38352
      H   91    0.11580      0.00000     0.38350    0.00070     0.38420
      H   92    0.25644      0.00000     0.24261    0.00095     0.24356
      H   93    0.11286      0.00000     0.38607    0.00107     0.38714
      H   94    0.11488      0.00000     0.38442    0.00069     0.38512
      H   95    0.11698      0.00000     0.38235    0.00067     0.38302
      H   96    0.11066      0.00000     0.38878    0.00055     0.38934
      H   97    0.11408      0.00000     0.38518    0.00074     0.38592
      H   98    0.11174      0.00000     0.38752    0.00075     0.38826
      H   99    0.11936      0.00000     0.37997    0.00067     0.38064
      H  100    0.11739      0.00000     0.38201    0.00061     0.38261
      H  101    0.25967      0.00000     0.23894    0.00138     0.24033
 =======================================================================
   * Total *    3.00001     64.97378   136.40546    0.62076   201.99999

 Normal termination of Gaussian 16 at Wed Nov  9 03:16:45 2022.
