 Gaussian 16, Revision A.03,
 Gaussian 16:  ES64L-G16RevA.03 25-Dec-2016

 ----------------------------------------------------------------------
 # PBE1PBE/def2TZVP empiricaldispersion=GD3BJ scf=maxcycle=999 geom=che
 ck pop=nbo
 ----------------------------------------------------------------------

 ----------
 1cxc_III_D
 ----------
 Structure from the checkpoint file:  "1cxc_III_D.chk"
 Charge =  1 Multiplicity = 2

                         Standard orientation:
 ---------------------------------------------------------------------
 Center     Atomic      Atomic             Coordinates (Angstroms)
 Number     Number       Type             X           Y           Z
 ---------------------------------------------------------------------
      1          6           0        2.696950   -1.802421    4.862558
      2          6           0        1.755409   -1.282022    3.774029
      3          7           0        0.364424   -1.370551    3.887166
      4          6           0        2.109695   -0.798069    2.530276
      5          6           0       -0.085529   -0.928021    2.692068
      6          7           0        0.875895   -0.600703    1.884125
      7          6           0       -0.614060    3.099490   -2.664315
      8          6           0        0.712625    2.342734   -2.619238
      9         16           0        0.519372    0.555136   -2.318269
     10          6           0        1.842575   -0.033833   -3.300173
     11         26           0        0.755783   -0.067386   -0.057266
     12          6           0       -2.624426   -0.135793    0.060431
     13          6           0        0.820637   -3.390412   -0.802439
     14          6           0        4.168467    0.059620   -0.352581
     15          6           0        0.750698    3.189102    0.994823
     16          7           0       -0.606837   -1.466726   -0.353662
     17          6           0       -1.982683   -1.315000   -0.277306
     18          6           0       -2.658953   -2.562205   -0.589497
     19          6           0       -1.696791   -3.474485   -0.861144
     20          6           0       -0.427221   -2.792289   -0.678007
     21          6           0       -1.933142   -4.891036   -1.365853
     22          6           0       -4.154488   -2.838469   -0.534509
     23          6           0       -4.515216   -3.532218    0.769660
     24          6           0       -5.992850   -3.547930    1.127351
     25          8           0       -6.303814   -3.368755    2.286486
     26          8           0       -6.814597   -3.544247    0.217068
     27          7           0        2.170944   -1.366176   -0.500680
     28          6           0        2.027952   -2.731208   -0.703436
     29          6           0        3.319770   -3.370873   -0.888791
     30          6           0        4.280354   -2.395356   -0.845012
     31          6           0        3.552636   -1.157257   -0.587559
     32          6           0        3.545480   -4.872386   -1.103371
     33          6           0        5.675172   -2.561132   -1.081529
     34          6           0        6.172237   -3.022260   -2.464239
     35          7           0        2.140401    1.333608    0.214006
     36          6           0        3.514454    1.212135    0.029454
     37          6           0        4.200065    2.425612    0.427126
     38          6           0        3.243115    3.304280    0.804968
     39          6           0        1.971984    2.617356    0.684988
     40          6           0        5.703040    2.586150    0.602399
     41          6           0        3.435187    4.601558    1.269489
     42          6           0        4.149461    5.614921    0.506610
     43          7           0       -0.622963    1.225613    0.437044
     44          6           0       -0.468171    2.542545    0.865871
     45          6           0       -1.749869    3.184099    1.062841
     46          6           0       -2.698313    2.278760    0.735407
     47          6           0       -1.998005    1.059743    0.378225
     48          6           0       -1.992886    4.623551    1.511678
     49          6           0       -4.167940    2.579401    0.483323
     50          6           0       -4.465699    2.664210   -1.012915
     51          6           0       -5.727189    3.462400   -1.373069
     52          8           0       -5.894836    3.787021   -2.539477
     53          8           0       -6.668257    3.448155   -0.597356
     54          1           0        2.369471    0.795750   -3.723343
     55          1           0        2.510189   -0.607626   -2.691936
     56          1           0        1.457190   -0.649772   -4.085665
     57          1           0       -0.769186    3.489064   -3.648727
     58          1           0       -1.413275    2.433427   -2.414286
     59          1           0       -0.588741    3.905905   -1.961496
     60          1           0        1.216519    2.479847   -3.553150
     61          1           0        1.316691    2.757532   -1.839528
     62          1           0        3.288347   -0.994038    5.238945
     63          1           0        2.121616   -2.224785    5.659740
     64          1           0        3.339166   -2.552276    4.450034
     65          1           0       -0.171961   -1.687256    4.669463
     66          1           0       -1.122694   -0.855360    2.439265
     67          1           0        3.092232   -0.615913    2.147732
     68          1           0        6.377580   -2.365267   -0.298484
     69          1           0        6.679769   -2.214288   -2.948484
     70          1           0        6.844983   -3.845727   -2.345012
     71          1           0        5.337323   -3.327160   -3.059936
     72          1           0        4.237634   -5.017855   -1.906280
     73          1           0        3.941370   -5.305034   -0.208392
     74          1           0        2.614930   -5.341971   -1.345167
     75          1           0        5.230083    0.109981   -0.476414
     76          1           0        5.976872    3.604023    0.418415
     77          1           0        5.976209    2.318352    1.601680
     78          1           0        6.212904    1.948961   -0.089648
     79          1           0        3.490907    6.430803    0.293203
     80          1           0        4.982879    5.968980    1.076659
     81          1           0        4.499615    5.189842   -0.410777
     82          1           0        3.041023    4.865719    2.228527
     83          1           0        0.747155    4.195751    1.357513
     84          1           0        0.846967   -4.443607   -0.989487
     85          1           0       -1.522890   -4.992525   -2.348856
     86          1           0       -1.458276   -5.588123   -0.707468
     87          1           0       -2.984393   -5.088170   -1.396003
     88          1           0       -4.687822   -1.913345   -0.602343
     89          1           0       -4.428737   -3.466018   -1.356621
     90          1           0       -4.175970   -4.545401    0.712444
     91          1           0       -3.986135   -3.046064    1.562521
     92          1           0       -6.798182   -2.846027   -0.441583
     93          1           0       -3.694218   -0.147930    0.077705
     94          1           0       -2.423229    5.180597    0.705821
     95          1           0       -2.662383    4.628693    2.346331
     96          1           0       -1.063303    5.069843    1.797335
     97          1           0       -4.418987    3.511919    0.944069
     98          1           0       -4.763743    1.802953    0.915811
     99          1           0       -3.628123    3.120211   -1.498127
    100          1           0       -4.576369    1.669616   -1.391642
    101          1           0       -7.339523    4.132833   -0.644439
 ---------------------------------------------------------------------

 SCF Done:  E(UPBE1PBE) =  -3880.38039312     A.U. after   69 cycles

 Alpha virt. eigenvalues --    0.95435   0.95689   0.96070   0.96112   0.96596
 Alpha virt. eigenvalues --    0.96643   0.97078   0.97323   0.97613   0.97873
 Alpha virt. eigenvalues --    0.98161   0.98547   0.98931   0.99177   0.99430

  Beta  occ. eigenvalues -- -256.42900 -89.11386 -30.19796 -26.02620 -26.02366
  Beta  occ. eigenvalues --  -26.02136 -19.33135 -19.31917 -19.24011 -19.23541
  Beta  occ. eigenvalues --  -14.53794 -14.49256 -14.48902 -14.47713 -14.47550
  Beta  occ. eigenvalues --  -14.47394 -10.41302 -10.40963 -10.38739 -10.37176
  Beta  occ. eigenvalues --  -10.36465 -10.35964 -10.35796 -10.35383 -10.35149
  Beta  occ. eigenvalues --  -10.35012 -10.34943 -10.34840 -10.34780 -10.34528
  Beta  occ. eigenvalues --  -10.34254 -10.33204 -10.33110 -10.32584 -10.31995
  Beta  occ. eigenvalues --  -10.31961 -10.31932 -10.31806 -10.31802 -10.31708
  Beta  occ. eigenvalues --  -10.31656 -10.31652 -10.31609 -10.31543 -10.31377
  Beta  occ. eigenvalues --  -10.31329 -10.31103 -10.31071 -10.30771 -10.30724
  Beta  occ. eigenvalues --  -10.30660 -10.30057 -10.29865 -10.29766 -10.29611
  Beta  occ. eigenvalues --  -10.29418 -10.28473  -8.09265  -6.02908  -6.02611
  Beta  occ. eigenvalues --   -6.02118  -3.53758  -2.29487  -2.29174  -2.28915
  Beta  occ. eigenvalues --   -1.25515  -1.24387  -1.14422  -1.10585  -1.09720
  Beta  occ. eigenvalues --   -1.08799  -1.07197  -1.06456  -1.05704  -1.00233
  Beta  occ. eigenvalues --   -0.96715  -0.93907  -0.93092  -0.92815  -0.92433
  Beta  occ. eigenvalues --   -0.91410  -0.91146  -0.90754  -0.89541  -0.88999
  Beta  occ. eigenvalues --   -0.87910  -0.87369  -0.85762  -0.85594  -0.85101
  Beta  occ. eigenvalues --   -0.84112  -0.82345  -0.81337  -0.80902  -0.80680
  Beta  occ. eigenvalues --   -0.79124  -0.78021  -0.77390  -0.76863  -0.75748
  Beta  occ. eigenvalues --   -0.75405  -0.74938  -0.74044  -0.73720  -0.73373
  Beta  occ. eigenvalues --   -0.71901  -0.70800  -0.69553  -0.69423  -0.67707
  Beta  occ. eigenvalues --   -0.66183  -0.65490  -0.65101  -0.64712  -0.63726
  Beta  occ. eigenvalues --   -0.62696  -0.61775  -0.61356  -0.60912  -0.60112
  Beta  occ. eigenvalues --   -0.59413  -0.59159  -0.58401  -0.58215  -0.57937
  Beta  occ. eigenvalues --   -0.57840  -0.57287  -0.57054  -0.56506  -0.56123
  Beta  occ. eigenvalues --   -0.56039  -0.55685  -0.55245  -0.54972  -0.54808
  Beta  occ. eigenvalues --   -0.54486  -0.54247  -0.53963  -0.53823  -0.53669
  Beta  occ. eigenvalues --   -0.53454  -0.53392  -0.53025  -0.52905  -0.52713
  Beta  occ. eigenvalues --   -0.52363  -0.52264  -0.52189  -0.51564  -0.51356
  Beta  occ. eigenvalues --   -0.51056  -0.50793  -0.50654  -0.50519  -0.50235
  Beta  occ. eigenvalues --   -0.49861  -0.49710  -0.49538  -0.49320  -0.49216
  Beta  occ. eigenvalues --   -0.48993  -0.48694  -0.48539  -0.48137  -0.47728
  Beta  occ. eigenvalues --   -0.47515  -0.47273  -0.47209  -0.46825  -0.46650
  Beta  occ. eigenvalues --   -0.46409  -0.46122  -0.46005  -0.45906  -0.45169
  Beta  occ. eigenvalues --   -0.44820  -0.44783  -0.44135  -0.43949  -0.43797
  Beta  occ. eigenvalues --   -0.43069  -0.42864  -0.42410  -0.42226  -0.41879
  Beta  occ. eigenvalues --   -0.41173  -0.40136  -0.39475  -0.39015  -0.38723
  Beta  occ. eigenvalues --   -0.38272  -0.37755  -0.35280  -0.34949  -0.34487
  Beta  occ. eigenvalues --   -0.33861  -0.33520  -0.33450  -0.32539  -0.31491
  Beta  occ. eigenvalues --   -0.29853  -0.29335  -0.28837  -0.27649
  Beta virt. eigenvalues --   -0.22268  -0.17045  -0.16553  -0.13374  -0.10373
  Beta virt. eigenvalues --   -0.08457  -0.07261  -0.06723  -0.06603  -0.06101
  Beta virt. eigenvalues --   -0.05860  -0.05504  -0.05329  -0.04938  -0.04767

 Mulliken charges and spin densities:
               1          2
     1  C   -0.363902  -0.000224
     2  C    0.128387   0.001599
     3  N   -0.223306  -0.000628
     4  C   -0.205269  -0.002510
     5  C    0.003458  -0.002471
     6  N    0.071223  -0.000748
     7  C   -0.392046   0.000095
     8  C   -0.144251  -0.000845
     9  S    0.046881  -0.008012
    10  C   -0.342029  -0.000163
    11  Fe  -0.532026   0.201174
    12  C   -0.542050   0.060000
    13  C   -0.502728   0.046857
    14  C   -0.514546   0.032534
    15  C   -0.527156   0.014249
    16  N    0.066818   0.038280
    17  C    0.277631  -0.092361
    18  C    0.037364   0.008406
    19  C   -0.096857  -0.022729
    20  C    0.251211  -0.064620
    21  C   -0.387048   0.001486
    22  C   -0.432278   0.000732
    23  C   -0.165486  -0.000496
    24  C    0.252361   0.000026
    25  O   -0.305237  -0.000150
    26  O   -0.297521  -0.000009
    27  N    0.004197   0.054410
    28  C    0.381627  -0.082118
    29  C   -0.100941   0.140079
    30  C    0.062330  -0.174912
    31  C    0.104525  -0.020346
    32  C   -0.356600  -0.007705
    33  C   -0.268149   0.989446
    34  C   -0.348076  -0.062505
    35  N    0.063772   0.013260
    36  C    0.365321  -0.064718
    37  C   -0.159564   0.115345
    38  C    0.102947  -0.050778
    39  C    0.158993  -0.053089
    40  C   -0.351883  -0.006134
    41  C   -0.130522   0.108073
    42  C   -0.333210  -0.008418
    43  N    0.085959   0.028881
    44  C    0.312406  -0.048261
    45  C   -0.049548  -0.024178
    46  C   -0.040550   0.011214
    47  C    0.278150  -0.092285
    48  C   -0.424656   0.002231
    49  C   -0.244897  -0.000304
    50  C   -0.200973  -0.000204
    51  C    0.224862  -0.000135
    52  O   -0.341456  -0.000164
    53  O   -0.301840  -0.000013
    54  H    0.139950  -0.000036
    55  H    0.143596  -0.000074
    56  H    0.160460  -0.000061
    57  H    0.146779  -0.000031
    58  H    0.140097   0.000065
    59  H    0.118796  -0.000022
    60  H    0.139083  -0.000230
    61  H    0.116031   0.000130
    62  H    0.149587   0.000048
    63  H    0.129333  -0.000020
    64  H    0.152528   0.000044
    65  H    0.256389   0.000068
    66  H    0.182743   0.000075
    67  H    0.166482   0.000235
    68  H    0.146555  -0.049314
    69  H    0.145542   0.035196
    70  H    0.144390   0.023702
    71  H    0.138779   0.001483
    72  H    0.142981   0.002513
    73  H    0.153059   0.005720
    74  H    0.127836  -0.000055
    75  H    0.117872   0.003424
    76  H    0.142061   0.001346
    77  H    0.160753   0.005664
    78  H    0.148033   0.000921
    79  H    0.178947   0.004332
    80  H    0.164655   0.004692
    81  H    0.158013   0.000004
    82  H    0.168840  -0.006235
    83  H    0.100356  -0.000305
    84  H    0.121413  -0.002076
    85  H    0.154532  -0.001200
    86  H    0.146143  -0.001069
    87  H    0.138137   0.000075
    88  H    0.113702   0.000030
    89  H    0.157462  -0.000083
    90  H    0.126729  -0.000016
    91  H    0.121968   0.000011
    92  H    0.354940  -0.000012
    93  H    0.117410  -0.002793
    94  H    0.153654  -0.001260
    95  H    0.158601  -0.001053
    96  H    0.125628  -0.000000
    97  H    0.126108   0.000071
    98  H    0.129073   0.000006
    99  H    0.135875   0.000006
   100  H    0.126598  -0.000044
   101  H    0.357681  -0.000017
 Sum of Mulliken charges =   1.00000   1.00000

 Dipole moment (field-independent basis, Debye):
    X=             10.3112    Y=              4.7818    Z=              2.9447  Tot=             11.7413
 Quadrupole moment (field-independent basis, Debye-Ang):
   XX=           -247.1442   YY=           -235.5195   ZZ=           -295.4234
   XY=              3.3490   XZ=              8.5610   YZ=             25.6094

 Summary of Natural Population Analysis:

                                       Natural Population
                Natural  -----------------------------------------------
    Atom  No    Charge         Core      Valence    Rydberg      Total
 -----------------------------------------------------------------------
      C    1   -0.32143      0.99969     2.31855    0.00319     3.32143
      C    2    0.06838      0.99959     1.92452    0.00751     2.93162
      N    3   -0.24969      0.99971     2.74029    0.00969     3.74969
      C    4   -0.05016      0.99947     2.04176    0.00892     3.05016
      C    5    0.10301      0.99965     1.88781    0.00953     2.89699
      N    6   -0.16206      0.99966     2.63679    0.02561     3.66206
      C    7   -0.31095      0.99972     2.30690    0.00432     3.31095
      C    8   -0.26044      0.99965     2.25165    0.00914     3.26044
      S    9    0.28746      4.99935     2.69296    0.02023     7.71254
      C   10   -0.38621      0.99966     2.37737    0.00917     3.38621
     Fe   11    0.04390      8.99467     3.93823    0.02320    12.95610
      C   12   -0.10205      0.99948     2.09393    0.00864     3.10205
      C   13   -0.09925      0.99948     2.09146    0.00830     3.09925
      C   14   -0.11733      0.99946     2.10928    0.00859     3.11733
      C   15   -0.12712      0.99948     2.11909    0.00856     3.12712
      N   16   -0.15862      0.99967     2.63548    0.02347     3.65862
      C   17    0.04514      0.99952     1.94475    0.01060     2.95486
      C   18   -0.00785      0.99942     1.99839    0.01004     3.00785
      C   19   -0.01952      0.99941     2.01172    0.00839     3.01952
      C   20    0.06569      0.99953     1.92470    0.01008     2.93431
      C   21   -0.31929      0.99970     2.31585    0.00375     3.31929
      C   22   -0.21897      0.99967     2.21165    0.00765     3.21897
      C   23   -0.25561      0.99963     2.24745    0.00852     3.25561
      C   24    0.38388      0.99974     1.59727    0.01911     2.61612
      O   25   -0.27342      0.99988     3.26056    0.01298     4.27342
      O   26   -0.33220      0.99977     3.31664    0.01580     4.33220
      N   27   -0.16149      0.99969     2.63883    0.02297     3.66149
      C   28    0.05274      0.99951     1.93741    0.01033     2.94726
      C   29    0.07011      0.99945     1.92220    0.00824     2.92989
      C   30   -0.12581      0.99946     2.11642    0.00993     3.12581
      C   31    0.09030      0.99951     1.89998    0.01021     2.90970
      C   32   -0.32105      0.99969     2.31782    0.00354     3.32105
      C   33    0.41025      0.99965     1.58333    0.00677     2.58975
      C   34   -0.35409      0.99972     2.35119    0.00318     3.35409
      N   35   -0.15538      0.99969     2.63292    0.02277     3.65538
      C   36    0.04525      0.99951     1.94481    0.01044     2.95475
      C   37    0.06885      0.99942     1.92296    0.00877     2.93115
      C   38   -0.10402      0.99943     2.09363    0.01097     3.10402
      C   39    0.07448      0.99952     1.91533    0.01066     2.92552
      C   40   -0.32258      0.99970     2.31667    0.00620     3.32258
      C   41    0.09938      0.99964     1.89274    0.00824     2.90062
      C   42   -0.34830      0.99970     2.34143    0.00717     3.34830
      N   43   -0.16962      0.99967     2.64656    0.02340     3.66962
      C   44    0.07054      0.99951     1.91932    0.01063     2.92946
      C   45   -0.02437      0.99940     2.01601    0.00895     3.02437
      C   46   -0.00599      0.99940     1.99723    0.00936     3.00599
      C   47    0.04581      0.99952     1.94442    0.01025     2.95419
      C   48   -0.31836      0.99970     2.31480    0.00386     3.31836
      C   49   -0.21748      0.99967     2.21069    0.00711     3.21748
      C   50   -0.24667      0.99963     2.23827    0.00876     3.24667
      C   51    0.37903      0.99977     1.60148    0.01971     2.62097
      O   52   -0.29623      0.99988     3.28327    0.01307     4.29623
      O   53   -0.32253      0.99978     3.30829    0.01446     4.32253
      H   54    0.11525      0.00000     0.38399    0.00076     0.38475
      H   55    0.12079      0.00000     0.37853    0.00068     0.37921
      H   56    0.11741      0.00000     0.38213    0.00047     0.38259
      H   57    0.11142      0.00000     0.38798    0.00060     0.38858
      H   58    0.10998      0.00000     0.38866    0.00136     0.39002
      H   59    0.10732      0.00000     0.39202    0.00066     0.39268
      H   60    0.11154      0.00000     0.38777    0.00069     0.38846
      H   61    0.10913      0.00000     0.38970    0.00116     0.39087
      H   62    0.11581      0.00000     0.38359    0.00060     0.38419
      H   63    0.11007      0.00000     0.38935    0.00058     0.38993
      H   64    0.11700      0.00000     0.38241    0.00058     0.38300
      H   65    0.21640      0.00000     0.28269    0.00092     0.28360
      H   66    0.11029      0.00000     0.38862    0.00109     0.38971
      H   67    0.11885      0.00000     0.38031    0.00084     0.38115
      H   68    0.08158      0.00000     0.41755    0.00087     0.41842
      H   69    0.13249      0.00000     0.36701    0.00049     0.36751
      H   70    0.12569      0.00000     0.37376    0.00054     0.37431
      H   71    0.10990      0.00000     0.38947    0.00063     0.39010
      H   72    0.11607      0.00000     0.38321    0.00072     0.38393
      H   73    0.11842      0.00000     0.38092    0.00066     0.38158
      H   74    0.10881      0.00000     0.39061    0.00058     0.39119
      H   75    0.11457      0.00000     0.38417    0.00126     0.38543
      H   76    0.11280      0.00000     0.38655    0.00064     0.38720
      H   77    0.12030      0.00000     0.37907    0.00063     0.37970
      H   78    0.11593      0.00000     0.38364    0.00042     0.38407
      H   79    0.13602      0.00000     0.36342    0.00056     0.36398
      H   80    0.12851      0.00000     0.37081    0.00069     0.37149
      H   81    0.11661      0.00000     0.38280    0.00059     0.38339
      H   82    0.10315      0.00000     0.39594    0.00091     0.39685
      H   83    0.10933      0.00000     0.38920    0.00147     0.39067
      H   84    0.11111      0.00000     0.38752    0.00137     0.38889
      H   85    0.11514      0.00000     0.38412    0.00074     0.38486
      H   86    0.11319      0.00000     0.38609    0.00072     0.38681
      H   87    0.11157      0.00000     0.38776    0.00067     0.38843
      H   88    0.10046      0.00000     0.39835    0.00119     0.39954
      H   89    0.11378      0.00000     0.38537    0.00084     0.38622
      H   90    0.11639      0.00000     0.38297    0.00063     0.38361
      H   91    0.11594      0.00000     0.38336    0.00070     0.38406
      H   92    0.25647      0.00000     0.24258    0.00096     0.24353
      H   93    0.10882      0.00000     0.39003    0.00115     0.39118
      H   94    0.11330      0.00000     0.38596    0.00074     0.38670
      H   95    0.11588      0.00000     0.38342    0.00071     0.38412
      H   96    0.10767      0.00000     0.39176    0.00057     0.39233
      H   97    0.11304      0.00000     0.38621    0.00075     0.38696
      H   98    0.11138      0.00000     0.38786    0.00075     0.38862
      H   99    0.11938      0.00000     0.37992    0.00070     0.38062
      H  100    0.11776      0.00000     0.38163    0.00061     0.38224
      H  101    0.25922      0.00000     0.23938    0.00140     0.24078
 =======================================================================
   * Total *    1.00000     64.97385   138.40333    0.62282   204.00000

 Normal termination of Gaussian 16 at Sat Nov  5 02:37:16 2022.
