 Gaussian 16, Revision A.03,
 Gaussian 16:  ES64L-G16RevA.03 25-Dec-2016

 ----------------------------------------------------------------------
 # PBE1PBE/def2TZVP empiricaldispersion=GD3BJ scf=maxcycle=999 geom=che
 ck pop=nbo guess=read
 ----------------------------------------------------------------------

 ---------
 1cxc_II_Q
 ---------
 Structure from the checkpoint file:  "1cxc_II_Q.chk"
 Charge =  0 Multiplicity = 5

                         Standard orientation:
 ---------------------------------------------------------------------
 Center     Atomic      Atomic             Coordinates (Angstroms)
 Number     Number       Type             X           Y           Z
 ---------------------------------------------------------------------
      1          6           0        2.696950   -1.802421    4.862558
      2          6           0        1.755409   -1.282022    3.774029
      3          7           0        0.364424   -1.370551    3.887166
      4          6           0        2.109695   -0.798069    2.530276
      5          6           0       -0.085529   -0.928021    2.692068
      6          7           0        0.875895   -0.600703    1.884125
      7          6           0       -0.614060    3.099490   -2.664315
      8          6           0        0.712625    2.342734   -2.619238
      9         16           0        0.519372    0.555136   -2.318269
     10          6           0        1.842575   -0.033833   -3.300173
     11         26           0        0.755783   -0.067386   -0.057266
     12          6           0       -2.624426   -0.135793    0.060431
     13          6           0        0.820637   -3.390412   -0.802439
     14          6           0        4.168467    0.059620   -0.352581
     15          6           0        0.750698    3.189102    0.994823
     16          7           0       -0.606837   -1.466726   -0.353662
     17          6           0       -1.982683   -1.315000   -0.277306
     18          6           0       -2.658953   -2.562205   -0.589497
     19          6           0       -1.696791   -3.474485   -0.861144
     20          6           0       -0.427221   -2.792289   -0.678007
     21          6           0       -1.933142   -4.891036   -1.365853
     22          6           0       -4.154488   -2.838469   -0.534509
     23          6           0       -4.515216   -3.532218    0.769660
     24          6           0       -5.992850   -3.547930    1.127351
     25          8           0       -6.303814   -3.368755    2.286486
     26          8           0       -6.814597   -3.544247    0.217068
     27          7           0        2.170944   -1.366176   -0.500680
     28          6           0        2.027952   -2.731208   -0.703436
     29          6           0        3.319770   -3.370873   -0.888791
     30          6           0        4.280354   -2.395356   -0.845012
     31          6           0        3.552636   -1.157257   -0.587559
     32          6           0        3.545480   -4.872386   -1.103371
     33          6           0        5.675172   -2.561132   -1.081529
     34          6           0        6.172237   -3.022260   -2.464239
     35          7           0        2.140401    1.333608    0.214006
     36          6           0        3.514454    1.212135    0.029454
     37          6           0        4.200065    2.425612    0.427126
     38          6           0        3.243115    3.304280    0.804968
     39          6           0        1.971984    2.617356    0.684988
     40          6           0        5.703040    2.586150    0.602399
     41          6           0        3.435187    4.601558    1.269489
     42          6           0        4.149461    5.614921    0.506610
     43          7           0       -0.622963    1.225613    0.437044
     44          6           0       -0.468171    2.542545    0.865871
     45          6           0       -1.749869    3.184099    1.062841
     46          6           0       -2.698313    2.278760    0.735407
     47          6           0       -1.998005    1.059743    0.378225
     48          6           0       -1.992886    4.623551    1.511678
     49          6           0       -4.167940    2.579401    0.483323
     50          6           0       -4.465699    2.664210   -1.012915
     51          6           0       -5.727189    3.462400   -1.373069
     52          8           0       -5.894836    3.787021   -2.539477
     53          8           0       -6.668257    3.448155   -0.597356
     54          1           0        2.369471    0.795750   -3.723343
     55          1           0        2.510189   -0.607626   -2.691936
     56          1           0        1.457190   -0.649772   -4.085665
     57          1           0       -0.769186    3.489064   -3.648727
     58          1           0       -1.413275    2.433427   -2.414286
     59          1           0       -0.588741    3.905905   -1.961496
     60          1           0        1.216519    2.479847   -3.553150
     61          1           0        1.316691    2.757532   -1.839528
     62          1           0        3.288347   -0.994038    5.238945
     63          1           0        2.121616   -2.224785    5.659740
     64          1           0        3.339166   -2.552276    4.450034
     65          1           0       -0.171961   -1.687256    4.669463
     66          1           0       -1.122694   -0.855360    2.439265
     67          1           0        3.092232   -0.615913    2.147732
     68          1           0        6.377580   -2.365267   -0.298484
     69          1           0        6.679769   -2.214288   -2.948484
     70          1           0        6.844983   -3.845727   -2.345012
     71          1           0        5.337323   -3.327160   -3.059936
     72          1           0        4.237634   -5.017855   -1.906280
     73          1           0        3.941370   -5.305034   -0.208392
     74          1           0        2.614930   -5.341971   -1.345167
     75          1           0        5.230083    0.109981   -0.476414
     76          1           0        5.976872    3.604023    0.418415
     77          1           0        5.976209    2.318352    1.601680
     78          1           0        6.212904    1.948961   -0.089648
     79          1           0        3.490907    6.430803    0.293203
     80          1           0        4.982879    5.968980    1.076659
     81          1           0        4.499615    5.189842   -0.410777
     82          1           0        3.041023    4.865719    2.228527
     83          1           0        0.747155    4.195751    1.357513
     84          1           0        0.846967   -4.443607   -0.989487
     85          1           0       -1.522890   -4.992525   -2.348856
     86          1           0       -1.458276   -5.588123   -0.707468
     87          1           0       -2.984393   -5.088170   -1.396003
     88          1           0       -4.687822   -1.913345   -0.602343
     89          1           0       -4.428737   -3.466018   -1.356621
     90          1           0       -4.175970   -4.545401    0.712444
     91          1           0       -3.986135   -3.046064    1.562521
     92          1           0       -6.798182   -2.846027   -0.441583
     93          1           0       -3.694218   -0.147930    0.077705
     94          1           0       -2.423229    5.180597    0.705821
     95          1           0       -2.662383    4.628693    2.346331
     96          1           0       -1.063303    5.069843    1.797335
     97          1           0       -4.418987    3.511919    0.944069
     98          1           0       -4.763743    1.802953    0.915811
     99          1           0       -3.628123    3.120211   -1.498127
    100          1           0       -4.576369    1.669616   -1.391642
    101          1           0       -7.339523    4.132833   -0.644439
 ---------------------------------------------------------------------

 SCF Done:  E(UPBE1PBE) =  -3880.56407437     A.U. after    1 cycles

 Alpha virt. eigenvalues --    1.04111   1.04332   1.04619   1.04789   1.04991
 Alpha virt. eigenvalues --    1.05447   1.05877   1.06107   1.06287   1.06560
 Alpha virt. eigenvalues --    1.06749   1.06877   1.07184   1.07604   1.07810

  Beta  occ. eigenvalues -- -256.31347 -88.99889 -30.06160 -25.89936 -25.89320
  Beta  occ. eigenvalues --  -25.87908 -19.26624 -19.25539 -19.17525 -19.16858
  Beta  occ. eigenvalues --  -14.44467 -14.37504 -14.37352 -14.37326 -14.36661
  Beta  occ. eigenvalues --  -14.36599 -10.34448 -10.34325 -10.27360 -10.26482
  Beta  occ. eigenvalues --  -10.24426 -10.24335 -10.24325 -10.24314 -10.24278
  Beta  occ. eigenvalues --  -10.24194 -10.24168 -10.23935 -10.23621 -10.23550
  Beta  occ. eigenvalues --  -10.22888 -10.22629 -10.22586 -10.22503 -10.22455
  Beta  occ. eigenvalues --  -10.22203 -10.22101 -10.22074 -10.21858 -10.21841
  Beta  occ. eigenvalues --  -10.21718 -10.21680 -10.21601 -10.21577 -10.21515
  Beta  occ. eigenvalues --  -10.21334 -10.21272 -10.21183 -10.21180 -10.21153
  Beta  occ. eigenvalues --  -10.21070 -10.21063 -10.21031 -10.20865 -10.20542
  Beta  occ. eigenvalues --  -10.20504 -10.19291  -7.97915  -5.91583  -5.91258
  Beta  occ. eigenvalues --   -5.90684  -3.38474  -2.16268  -2.13911  -2.10530
  Beta  occ. eigenvalues --   -1.18956  -1.17967  -1.04735  -1.04126  -1.03070
  Beta  occ. eigenvalues --   -0.97269  -0.96284  -0.96089  -0.95097  -0.90355
  Beta  occ. eigenvalues --   -0.84338  -0.83796  -0.83058  -0.82768  -0.82478
  Beta  occ. eigenvalues --   -0.81670  -0.80757  -0.80250  -0.80025  -0.79140
  Beta  occ. eigenvalues --   -0.78591  -0.76859  -0.75957  -0.75875  -0.74969
  Beta  occ. eigenvalues --   -0.73878  -0.72788  -0.72236  -0.71757  -0.71651
  Beta  occ. eigenvalues --   -0.70185  -0.69981  -0.69040  -0.66931  -0.66122
  Beta  occ. eigenvalues --   -0.65545  -0.65162  -0.64852  -0.64242  -0.62494
  Beta  occ. eigenvalues --   -0.62057  -0.61343  -0.59500  -0.58808  -0.57171
  Beta  occ. eigenvalues --   -0.55836  -0.55546  -0.55171  -0.54234  -0.53725
  Beta  occ. eigenvalues --   -0.53052  -0.52331  -0.52037  -0.51725  -0.51348
  Beta  occ. eigenvalues --   -0.51139  -0.50577  -0.49202  -0.48701  -0.48484
  Beta  occ. eigenvalues --   -0.48285  -0.48042  -0.47975  -0.47375  -0.46991
  Beta  occ. eigenvalues --   -0.46884  -0.46054  -0.45807  -0.45169  -0.44872
  Beta  occ. eigenvalues --   -0.44763  -0.44566  -0.44175  -0.44031  -0.43917
  Beta  occ. eigenvalues --   -0.43791  -0.43589  -0.43523  -0.43101  -0.42925
  Beta  occ. eigenvalues --   -0.42752  -0.42622  -0.42521  -0.42147  -0.42080
  Beta  occ. eigenvalues --   -0.41758  -0.41735  -0.41504  -0.40917  -0.40693
  Beta  occ. eigenvalues --   -0.40256  -0.40104  -0.40024  -0.39856  -0.39420
  Beta  occ. eigenvalues --   -0.39276  -0.39262  -0.38956  -0.38685  -0.38501
  Beta  occ. eigenvalues --   -0.38254  -0.37921  -0.37623  -0.37350  -0.37167
  Beta  occ. eigenvalues --   -0.36822  -0.36683  -0.36569  -0.36323  -0.36155
  Beta  occ. eigenvalues --   -0.35760  -0.35197  -0.34955  -0.34575  -0.34228
  Beta  occ. eigenvalues --   -0.33024  -0.32805  -0.32510  -0.32344  -0.32279
  Beta  occ. eigenvalues --   -0.31984  -0.31908  -0.30867  -0.29939  -0.28074
  Beta  occ. eigenvalues --   -0.27798  -0.27633  -0.27278  -0.25257  -0.24811
  Beta  occ. eigenvalues --   -0.24171  -0.23941  -0.23118  -0.22665  -0.19531
  Beta  occ. eigenvalues --   -0.18850  -0.18427  -0.15064
  Beta virt. eigenvalues --   -0.07714  -0.06595  -0.04424  -0.03495  -0.00750
  Beta virt. eigenvalues --    0.00086   0.00428   0.00800   0.01978   0.02509
  Beta virt. eigenvalues --    0.02729   0.02938   0.03959   0.04296   0.04436

 Mulliken charges and spin densities:
               1          2
     1  C   -0.374464   0.001206
     2  C    0.135026   0.004465
     3  N   -0.235676   0.000038
     4  C   -0.198248   0.000481
     5  C    0.000131  -0.006897
     6  N    0.037379   0.047124
     7  C   -0.386703  -0.001134
     8  C   -0.143536   0.001769
     9  S   -0.006025   0.066224
    10  C   -0.338138  -0.002742
    11  Fe  -0.421396   2.116889
    12  C   -0.536502  -0.016752
    13  C   -0.506851   0.004464
    14  C   -0.525423   0.043195
    15  C   -0.533638  -0.032414
    16  N    0.032460  -0.021610
    17  C    0.260489  -0.010441
    18  C    0.041773   0.014775
    19  C   -0.096908  -0.009341
    20  C    0.236981  -0.000305
    21  C   -0.399595   0.000497
    22  C   -0.440893  -0.000863
    23  C   -0.162771   0.000352
    24  C    0.249422   0.000189
    25  O   -0.315435   0.000035
    26  O   -0.305853   0.000003
    27  N   -0.003099   0.001773
    28  C    0.361112  -0.015245
    29  C   -0.100590   0.094459
    30  C    0.071433  -0.148666
    31  C    0.102066  -0.017220
    32  C   -0.369999  -0.005403
    33  C   -0.282403   1.025886
    34  C   -0.343981  -0.063374
    35  N    0.013735   0.004879
    36  C    0.364864  -0.062326
    37  C   -0.177318   0.191135
    38  C    0.138916  -0.190115
    39  C    0.127692   0.058697
    40  C   -0.364201  -0.011230
    41  C   -0.269595   0.937235
    42  C   -0.327613  -0.060861
    43  N    0.084157  -0.038805
    44  C    0.322148   0.029782
    45  C   -0.044706  -0.020170
    46  C   -0.044631   0.020284
    47  C    0.259434  -0.011753
    48  C   -0.436405   0.000486
    49  C   -0.249996  -0.001875
    50  C   -0.199559   0.000853
    51  C    0.224194   0.000320
    52  O   -0.352740   0.000051
    53  O   -0.302574  -0.000030
    54  H    0.125930   0.000461
    55  H    0.142371   0.003638
    56  H    0.139849   0.001268
    57  H    0.125750  -0.000052
    58  H    0.137211   0.000011
    59  H    0.116489   0.000655
    60  H    0.117072   0.001904
    61  H    0.126349   0.002706
    62  H    0.144257  -0.000020
    63  H    0.115109   0.000101
    64  H    0.146165  -0.000004
    65  H    0.238610   0.003468
    66  H    0.173361   0.001964
    67  H    0.163489   0.001324
    68  H    0.128284  -0.050154
    69  H    0.134071   0.036688
    70  H    0.125203   0.022764
    71  H    0.135884   0.001288
    72  H    0.128697   0.001397
    73  H    0.138688   0.004273
    74  H    0.119862  -0.000508
    75  H    0.099951   0.002374
    76  H    0.133365   0.001538
    77  H    0.137231   0.009095
    78  H    0.128104   0.000774
    79  H    0.132248   0.040927
    80  H    0.124769   0.036368
    81  H    0.133159  -0.000087
    82  H    0.118364  -0.047027
    83  H    0.093017   0.005493
    84  H    0.099752  -0.000434
    85  H    0.144490  -0.000344
    86  H    0.137653  -0.000313
    87  H    0.124043   0.000132
    88  H    0.109835   0.000039
    89  H    0.143961   0.000263
    90  H    0.117893  -0.000000
    91  H    0.126757   0.000044
    92  H    0.354738   0.000031
    93  H    0.096698   0.000393
    94  H    0.139595  -0.000491
    95  H    0.141757  -0.000181
    96  H    0.129050   0.000118
    97  H    0.113536   0.000021
    98  H    0.118587   0.000213
    99  H    0.140363  -0.000125
   100  H    0.125123  -0.000010
   101  H    0.347315   0.000044
 Sum of Mulliken charges =  -0.00000   4.00000

 Dipole moment (field-independent basis, Debye):
    X=              3.2520    Y=              0.1817    Z=              2.3445  Tot=              4.0132
 Quadrupole moment (field-independent basis, Debye-Ang):
   XX=           -320.1946   YY=           -307.7401   ZZ=           -320.0631
   XY=            -15.7744   XZ=              5.9959   YZ=             17.2436

 Summary of Natural Population Analysis:

                                       Natural Population
                Natural  -----------------------------------------------
    Atom  No    Charge         Core      Valence    Rydberg      Total
 -----------------------------------------------------------------------
      C    1   -0.31974      0.99970     2.31699    0.00305     3.31974
      C    2    0.05993      0.99958     1.93140    0.00909     2.94007
      N    3   -0.25298      0.99971     2.74343    0.00984     3.75298
      C    4   -0.04323      0.99946     2.03506    0.00871     3.04323
      C    5    0.09592      0.99964     1.89322    0.01123     2.90408
      N    6   -0.15011      0.99970     2.62504    0.02538     3.65011
      C    7   -0.31040      0.99972     2.30641    0.00426     3.31040
      C    8   -0.25924      0.99965     2.25021    0.00939     3.25924
      S    9    0.30263      4.99930     2.67877    0.01930     7.69737
      C   10   -0.38583      0.99966     2.37693    0.00923     3.38583
     Fe   11    1.02220      8.99458     2.95830    0.02492    11.97780
      C   12   -0.13005      0.99948     2.12184    0.00873     3.13005
      C   13   -0.11833      0.99948     2.11034    0.00851     3.11833
      C   14   -0.11257      0.99946     2.10450    0.00861     3.11257
      C   15   -0.14064      0.99948     2.13280    0.00837     3.14064
      N   16   -0.19108      0.99969     2.67123    0.02016     3.69108
      C   17    0.06271      0.99951     1.92728    0.01050     2.93729
      C   18   -0.01130      0.99941     2.00179    0.01009     3.01130
      C   19   -0.02024      0.99941     2.01224    0.00860     3.02024
      C   20    0.08089      0.99953     1.90930    0.01029     2.91911
      C   21   -0.31851      0.99970     2.31504    0.00377     3.31851
      C   22   -0.21776      0.99967     2.21023    0.00787     3.21776
      C   23   -0.25620      0.99963     2.24796    0.00861     3.25620
      C   24    0.38478      0.99974     1.59618    0.01931     2.61522
      O   25   -0.27933      0.99988     3.26650    0.01294     4.27933
      O   26   -0.33563      0.99977     3.32022    0.01564     4.33563
      N   27   -0.18034      0.99970     2.65660    0.02404     3.68034
      C   28    0.06393      0.99951     1.92537    0.01119     2.93607
      C   29    0.04413      0.99944     1.94791    0.00852     2.95587
      C   30   -0.11194      0.99946     2.10250    0.00998     3.11194
      C   31    0.07238      0.99951     1.91726    0.01085     2.92762
      C   32   -0.31927      0.99970     2.31593    0.00364     3.31927
      C   33    0.41208      0.99965     1.58125    0.00703     2.58792
      C   34   -0.35388      0.99972     2.35098    0.00318     3.35388
      N   35   -0.18459      0.99970     2.66521    0.01968     3.68459
      C   36    0.04138      0.99951     1.94862    0.01049     2.95862
      C   37    0.08304      0.99941     1.90890    0.00864     2.91696
      C   38   -0.13335      0.99945     2.12397    0.00993     3.13335
      C   39    0.12763      0.99952     1.86243    0.01042     2.87237
      C   40   -0.32170      0.99970     2.31841    0.00359     3.32170
      C   41    0.36753      0.99962     1.62558    0.00727     2.63247
      C   42   -0.35429      0.99972     2.34837    0.00620     3.35429
      N   43   -0.19394      0.99968     2.67079    0.02347     3.69394
      C   44    0.08944      0.99950     1.89961    0.01145     2.91056
      C   45   -0.02542      0.99940     2.01693    0.00909     3.02542
      C   46   -0.00617      0.99940     1.99744    0.00933     3.00617
      C   47    0.05676      0.99951     1.93278    0.01094     2.94324
      C   48   -0.31837      0.99970     2.31473    0.00394     3.31837
      C   49   -0.21604      0.99967     2.20911    0.00726     3.21604
      C   50   -0.24740      0.99963     2.23884    0.00894     3.24740
      C   51    0.38057      0.99977     1.59981    0.01985     2.61943
      O   52   -0.30255      0.99988     3.28959    0.01308     4.30255
      O   53   -0.32320      0.99978     3.30889    0.01453     4.32320
      H   54    0.11186      0.00000     0.38734    0.00081     0.38814
      H   55    0.12138      0.00000     0.37788    0.00073     0.37862
      H   56    0.11142      0.00000     0.38806    0.00052     0.38858
      H   57    0.10521      0.00000     0.39416    0.00063     0.39479
      H   58    0.10956      0.00000     0.38905    0.00139     0.39044
      H   59    0.10673      0.00000     0.39258    0.00068     0.39327
      H   60    0.10664      0.00000     0.39263    0.00073     0.39336
      H   61    0.11247      0.00000     0.38636    0.00117     0.38753
      H   62    0.11305      0.00000     0.38633    0.00062     0.38695
      H   63    0.10553      0.00000     0.39388    0.00059     0.39447
      H   64    0.11421      0.00000     0.38520    0.00060     0.38579
      H   65    0.21159      0.00000     0.28759    0.00082     0.28841
      H   66    0.10903      0.00000     0.39005    0.00092     0.39097
      H   67    0.12003      0.00000     0.37915    0.00082     0.37997
      H   68    0.07766      0.00000     0.42140    0.00094     0.42234
      H   69    0.12887      0.00000     0.37063    0.00051     0.37113
      H   70    0.11930      0.00000     0.38011    0.00059     0.38070
      H   71    0.10926      0.00000     0.39008    0.00066     0.39074
      H   72    0.11078      0.00000     0.38843    0.00079     0.38922
      H   73    0.11240      0.00000     0.38685    0.00075     0.38760
      H   74    0.10663      0.00000     0.39275    0.00062     0.39337
      H   75    0.10921      0.00000     0.38946    0.00134     0.39079
      H   76    0.11120      0.00000     0.38803    0.00077     0.38880
      H   77    0.11417      0.00000     0.38509    0.00074     0.38583
      H   78    0.10832      0.00000     0.39107    0.00061     0.39168
      H   79    0.13230      0.00000     0.36727    0.00043     0.36770
      H   80    0.12656      0.00000     0.37289    0.00055     0.37344
      H   81    0.10909      0.00000     0.39030    0.00061     0.39091
      H   82    0.07693      0.00000     0.42197    0.00110     0.42307
      H   83    0.10889      0.00000     0.38984    0.00127     0.39111
      H   84    0.10541      0.00000     0.39319    0.00140     0.39459
      H   85    0.11213      0.00000     0.38708    0.00079     0.38787
      H   86    0.11008      0.00000     0.38914    0.00078     0.38992
      H   87    0.10658      0.00000     0.39271    0.00071     0.39342
      H   88    0.09937      0.00000     0.39941    0.00123     0.40063
      H   89    0.10925      0.00000     0.38987    0.00088     0.39075
      H   90    0.11481      0.00000     0.38454    0.00066     0.38519
      H   91    0.11789      0.00000     0.38139    0.00072     0.38211
      H   92    0.25679      0.00000     0.24223    0.00098     0.24321
      H   93    0.10335      0.00000     0.39549    0.00116     0.39665
      H   94    0.10889      0.00000     0.39030    0.00081     0.39111
      H   95    0.11051      0.00000     0.38873    0.00076     0.38949
      H   96    0.10901      0.00000     0.39041    0.00058     0.39099
      H   97    0.10915      0.00000     0.39007    0.00077     0.39085
      H   98    0.10834      0.00000     0.39087    0.00080     0.39166
      H   99    0.12144      0.00000     0.37785    0.00071     0.37856
      H  100    0.11867      0.00000     0.38068    0.00064     0.38133
      H  101    0.25575      0.00000     0.24268    0.00157     0.24425
 =======================================================================
   * Total *    2.00000     64.97376   137.40408    0.62216   203.00000

 Normal termination of Gaussian 16 at Mon Nov 14 10:27:26 2022.
