 Gaussian 16, Revision A.03,
 Gaussian 16:  ES64L-G16RevA.03 25-Dec-2016

 ----------------------------------------------------------------------
 # PBE1PBE/def2TZVP empiricaldispersion=GD3BJ scf=maxcycle=999 geom=che
 ck pop=nbo
 ----------------------------------------------------------------------

 ---------
 1jbq_II_Q
 ---------
 Structure from the checkpoint file:  "1jbq_II_Q.chk"
 Charge =  0 Multiplicity = 5

                         Standard orientation:
 ---------------------------------------------------------------------
 Center     Atomic      Atomic             Coordinates (Angstroms)
 Number     Number       Type             X           Y           Z
 ---------------------------------------------------------------------
      1          6           0       -1.078762   -0.496773   -3.134535
      2         16           0        0.244926    0.204440   -2.173000
      3          6           0        3.242665   -0.056858    4.923379
      4          6           0        2.201657   -0.157349    3.856340
      5          7           0        0.910195   -0.560008    4.115252
      6          6           0        2.256656    0.105124    2.530199
      7          6           0        0.214648   -0.541385    2.993555
      8          7           0        1.007397   -0.142348    2.017380
      9          6           0       -2.382947   -0.284083    0.289028
     10          6           0        0.562368    3.434526   -0.130963
     11          6           0        4.316898    0.484535   -0.651212
     12          6           0        1.337982   -3.295291   -0.340100
     13          6           0       -1.924517    0.996042    0.246686
     14          6           0       -2.735492    2.186845    0.413283
     15          6           0       -1.916658    3.241418    0.283654
     16          6           0       -0.563806    2.719354    0.045625
     17          6           0       -2.283246    4.746817    0.367098
     18          6           0       -4.248916    2.159846    0.692638
     19          6           0       -5.149224    2.555658   -0.452600
     20          6           0       -6.593207    2.680625    0.013928
     21          8           0       -7.165264    1.561477    0.308457
     22          8           0       -7.108024    3.810139    0.094553
     23          6           0        1.823312    2.978921   -0.325337
     24          6           0        2.986585    3.837512   -0.495607
     25          6           0        4.069760    3.004154   -0.634578
     26          6           0        3.565599    1.651061   -0.561103
     27          6           0        2.935741    5.380519   -0.496675
     28          6           0        5.576025    3.343730   -0.830149
     29          6           0        6.013694    4.268773   -1.980950
     30          6           0        3.833952   -0.810735   -0.603710
     31          6           0        4.683771   -2.008219   -0.733084
     32          6           0        3.848917   -3.082900   -0.655463
     33          6           0        2.502234   -2.552030   -0.470598
     34          6           0        6.228799   -1.932376   -0.927847
     35          6           0        4.124650   -4.618421   -0.739396
     36          6           0        5.444631   -5.194640   -0.194216
     37          6           0        0.050017   -2.827717   -0.152563
     38          6           0       -1.158333   -3.637419   -0.018440
     39          6           0       -2.204217   -2.782745    0.161986
     40          6           0       -1.649640   -1.443040    0.137008
     41          6           0       -1.201846   -5.176604   -0.080644
     42          6           0       -3.696479   -3.139567    0.351023
     43          6           0       -4.548623   -2.593401   -0.858992
     44          6           0       -6.036265   -2.857935   -0.764566
     45          8           0       -6.568767   -3.075803    0.340470
     46          8           0       -6.649401   -2.806855   -1.857982
     47          7           0       -0.613013    1.354768    0.043787
     48          7           0        2.199669    1.652064   -0.379240
     49          7           0        2.518656   -1.167315   -0.439098
     50          7           0       -0.272516   -1.467185   -0.068155
     51         26           0        0.960786    0.073685   -0.217394
     52          1           0        2.966058   -0.676108    5.750977
     53          1           0        4.184926   -0.381695    4.534117
     54          1           0        3.322524    0.959195    5.249199
     55          1           0        0.555333   -0.824789    5.011892
     56          1           0       -0.817419   -0.805254    2.893007
     57          1           0        3.112722    0.442159    1.983887
     58          1           0       -2.007043   -0.352048   -2.622432
     59          1           0       -1.119477   -0.015826   -4.089486
     60          1           0       -0.905467   -1.543961   -3.269688
     61          1           0        0.008007    0.013029   -0.898899
     62          1           0       -1.771739   -5.550920    0.743983
     63          1           0       -1.658372   -5.483710   -0.998343
     64          1           0       -0.205640   -5.563883   -0.030764
     65          1           0       -4.052283   -2.701688    1.260180
     66          1           0       -3.801515   -4.202982    0.405938
     67          1           0       -4.398643   -1.536073   -0.925800
     68          1           0       -4.183323   -3.044042   -1.758091
     69          1           0       -6.055210   -2.986804    1.146658
     70          1           0       -3.432156   -0.406219    0.459739
     71          1           0       -4.512355    1.167188    0.992852
     72          1           0       -4.446046    2.819441    1.511768
     73          1           0       -4.824194    3.495597   -0.847277
     74          1           0       -5.090266    1.812241   -1.219903
     75          1           0       -7.308330    1.322723    1.227222
     76          1           0       -1.938595    5.146780    1.297767
     77          1           0       -1.818631    5.272365   -0.440883
     78          1           0       -3.345308    4.859421    0.301951
     79          1           0        0.447271    4.498212   -0.115945
     80          1           0        3.366679    5.752206    0.409438
     81          1           0        3.487167    5.754970   -1.333703
     82          1           0        1.918139    5.703800   -0.566500
     83          1           0        6.307461    2.934459   -0.165019
     84          1           0        6.426617    5.232089   -1.765507
     85          1           0        5.904867    3.948180   -2.995976
     86          1           0        5.374060    0.600392   -0.769050
     87          1           0        6.713925   -2.482504   -0.148802
     88          1           0        6.489712   -2.352352   -1.876765
     89          1           0        6.543103   -0.910220   -0.891640
     90          1           0        3.396362   -5.269695   -1.175674
     91          1           0        5.564287   -5.356018    0.856754
     92          1           0        6.242106   -5.433621   -0.866393
     93          1           0        1.450072   -4.358203   -0.390637
 ---------------------------------------------------------------------

 SCF Done:  E(UPBE1PBE) =  -3800.50259518     A.U. after   52 cycles

 Alpha virt. eigenvalues --    0.80683   0.80755   0.81123   0.81444   0.81781
 Alpha virt. eigenvalues --    0.82194   0.82361   0.82792   0.83005   0.83326
 Alpha virt. eigenvalues --    0.83498   0.84146   0.84344   0.84397   0.84877

  Beta  occ. eigenvalues -- -256.33737 -88.96594 -30.08710 -25.92517 -25.91838
  Beta  occ. eigenvalues --  -25.90344 -19.28364 -19.25841 -19.19470 -19.17437
  Beta  occ. eigenvalues --  -14.45253 -14.39076 -14.38380 -14.38059 -14.37793
  Beta  occ. eigenvalues --  -14.37645 -10.36136 -10.35591 -10.28352 -10.26373
  Beta  occ. eigenvalues --  -10.26225 -10.26072 -10.26032 -10.25798 -10.25598
  Beta  occ. eigenvalues --  -10.25582 -10.25356 -10.25348 -10.25178 -10.24949
  Beta  occ. eigenvalues --  -10.24899 -10.24300 -10.24107 -10.24069 -10.24057
  Beta  occ. eigenvalues --  -10.24038 -10.23970 -10.23764 -10.23651 -10.23647
  Beta  occ. eigenvalues --  -10.23534 -10.23436 -10.23309 -10.23256 -10.23022
  Beta  occ. eigenvalues --  -10.22998 -10.22756 -10.22614 -10.22485 -10.22255
  Beta  occ. eigenvalues --  -10.21957 -10.21835 -10.21775 -10.21650 -10.21445
  Beta  occ. eigenvalues --   -7.95117  -5.88784  -5.88257  -5.87909  -3.42310
  Beta  occ. eigenvalues --   -2.20564  -2.17545  -2.15051  -1.18374  -1.15318
  Beta  occ. eigenvalues --   -1.06956  -1.03879  -1.02691  -0.98849  -0.97607
  Beta  occ. eigenvalues --   -0.97536  -0.96482  -0.90912  -0.85103  -0.84513
  Beta  occ. eigenvalues --   -0.84311  -0.82107  -0.81960  -0.81602  -0.81381
  Beta  occ. eigenvalues --   -0.80886  -0.79951  -0.79809  -0.78645  -0.76500
  Beta  occ. eigenvalues --   -0.76031  -0.74326  -0.73603  -0.73484  -0.73095
  Beta  occ. eigenvalues --   -0.71518  -0.71009  -0.70808  -0.70182  -0.70083
  Beta  occ. eigenvalues --   -0.68679  -0.67167  -0.66489  -0.66250  -0.65264
  Beta  occ. eigenvalues --   -0.65033  -0.62748  -0.61923  -0.60658  -0.60209
  Beta  occ. eigenvalues --   -0.58767  -0.57261  -0.56994  -0.56071  -0.55233
  Beta  occ. eigenvalues --   -0.54767  -0.54187  -0.53381  -0.52900  -0.52464
  Beta  occ. eigenvalues --   -0.52030  -0.51615  -0.50375  -0.49613  -0.49490
  Beta  occ. eigenvalues --   -0.49124  -0.48975  -0.48560  -0.48356  -0.47953
  Beta  occ. eigenvalues --   -0.47585  -0.47060  -0.46630  -0.45984  -0.45546
  Beta  occ. eigenvalues --   -0.45232  -0.44902  -0.44814  -0.44616  -0.44456
  Beta  occ. eigenvalues --   -0.44032  -0.43968  -0.43831  -0.43763  -0.43632
  Beta  occ. eigenvalues --   -0.43409  -0.43165  -0.42912  -0.42767  -0.42582
  Beta  occ. eigenvalues --   -0.42326  -0.41940  -0.41729  -0.41593  -0.41459
  Beta  occ. eigenvalues --   -0.41101  -0.40944  -0.40699  -0.40603  -0.40266
  Beta  occ. eigenvalues --   -0.39988  -0.39739  -0.39602  -0.39217  -0.39082
  Beta  occ. eigenvalues --   -0.38827  -0.38632  -0.38441  -0.37743  -0.37223
  Beta  occ. eigenvalues --   -0.36752  -0.36684  -0.36281  -0.35837  -0.35721
  Beta  occ. eigenvalues --   -0.34968  -0.34219  -0.33805  -0.33803  -0.32909
  Beta  occ. eigenvalues --   -0.32583  -0.32309  -0.31165  -0.29819  -0.29222
  Beta  occ. eigenvalues --   -0.29074  -0.28539  -0.27649  -0.27007  -0.25904
  Beta  occ. eigenvalues --   -0.25462  -0.24789  -0.24570  -0.22425  -0.20778
  Beta  occ. eigenvalues --   -0.20493  -0.19641  -0.19363  -0.18603
  Beta virt. eigenvalues --   -0.09194  -0.08586  -0.07069  -0.06479  -0.04484
  Beta virt. eigenvalues --   -0.03018  -0.02108  -0.00965  -0.00406   0.01269
  Beta virt. eigenvalues --    0.01478   0.01852   0.02183   0.02335   0.03386

 Mulliken charges and spin densities:
               1          2
     1  C   -0.358141   0.025928
     2  S   -0.243849   0.237002
     3  C   -0.363275   0.000349
     4  C    0.109964   0.001124
     5  N   -0.217583   0.001116
     6  C   -0.161575   0.001352
     7  C    0.038984   0.001168
     8  N   -0.141207   0.025271
     9  C   -0.545064  -0.024368
    10  C   -0.466049   0.015706
    11  C   -0.490955   0.038971
    12  C   -0.492869  -0.015323
    13  C    0.364093   0.010617
    14  C    0.005070  -0.000854
    15  C   -0.073737   0.002772
    16  C    0.246896  -0.005655
    17  C   -0.404747   0.000389
    18  C   -0.490674   0.000851
    19  C   -0.127013  -0.000240
    20  C    0.307921  -0.000000
    21  O   -0.376643   0.000005
    22  O   -0.321076   0.000042
    23  C    0.363566  -0.008916
    24  C   -0.072101  -0.007213
    25  C    0.024012   0.001072
    26  C    0.209150  -0.022603
    27  C   -0.379678   0.000398
    28  C   -0.293732  -0.002832
    29  C   -0.352468   0.000638
    30  C    0.334906  -0.043230
    31  C   -0.060037   0.214647
    32  C   -0.072492  -0.170242
    33  C    0.281772   0.036208
    34  C   -0.372574  -0.014474
    35  C   -0.203852   0.902193
    36  C   -0.300999   1.038582
    37  C    0.332492   0.006969
    38  C   -0.093609   0.001103
    39  C    0.067300   0.000117
    40  C    0.154079   0.014134
    41  C   -0.421657  -0.000312
    42  C   -0.418789  -0.000260
    43  C   -0.210686   0.000183
    44  C    0.281937   0.000068
    45  O   -0.268775   0.000006
    46  O   -0.366721   0.000004
    47  N   -0.032163   0.018757
    48  N    0.029515  -0.009416
    49  N    0.047805   0.018021
    50  N    0.040829  -0.033233
    51  Fe  -0.173105   1.771366
    52  H    0.118316  -0.000005
    53  H    0.149032  -0.000006
    54  H    0.146553   0.000015
    55  H    0.225100   0.002059
    56  H    0.150056   0.000548
    57  H    0.151460   0.000321
    58  H    0.132470   0.005700
    59  H    0.154656   0.007832
    60  H    0.133556   0.003283
    61  H    0.156494  -0.014270
    62  H    0.133770   0.000051
    63  H    0.150086   0.000267
    64  H    0.132476   0.000061
    65  H    0.108170  -0.000055
    66  H    0.150193  -0.000063
    67  H    0.134317  -0.000004
    68  H    0.144444  -0.000083
    69  H    0.335730   0.000013
    70  H    0.088622   0.000518
    71  H    0.100742  -0.000093
    72  H    0.137832  -0.000029
    73  H    0.126543   0.000013
    74  H    0.130361   0.000064
    75  H    0.347226  -0.000008
    76  H    0.143323   0.000054
    77  H    0.140376   0.000030
    78  H    0.142231   0.000149
    79  H    0.093713  -0.001080
    80  H    0.138254  -0.000266
    81  H    0.147877  -0.000218
    82  H    0.122148   0.000018
    83  H    0.145482   0.000018
    84  H    0.147374  -0.000122
    85  H    0.156363  -0.000081
    86  H    0.087539  -0.001837
    87  H    0.139309   0.006027
    88  H    0.140641   0.007798
    89  H    0.125258   0.001955
    90  H    0.147201  -0.017991
    91  H    0.145677  -0.015903
    92  H    0.146057  -0.018328
    93  H    0.080571   0.005694
 Sum of Mulliken charges =  -0.00000   4.00000

 Dipole moment (field-independent basis, Debye):
    X=              4.8313    Y=             -3.4430    Z=             10.4927  Tot=             12.0538
 Quadrupole moment (field-independent basis, Debye-Ang):
   XX=           -355.7669   YY=           -306.5352   ZZ=           -288.2830
   XY=              8.0377   XZ=            -26.1415   YZ=            -10.2996

 Summary of Natural Population Analysis:

                                       Natural Population
                Natural  -----------------------------------------------
    Atom  No    Charge         Core      Valence    Rydberg      Total
 -----------------------------------------------------------------------
      C    1   -0.36392      0.99965     2.35673    0.00753     3.36392
      S    2    0.25064      4.99866     2.72570    0.02499     7.74936
      C    3   -0.31933      0.99970     2.31642    0.00321     3.31933
      C    4    0.04871      0.99954     1.94209    0.00965     2.95129
      N    5   -0.24127      0.99968     2.73118    0.01041     3.74127
      C    6   -0.03748      0.99944     2.02893    0.00911     3.03748
      C    7    0.08958      0.99968     1.90049    0.01025     2.91042
      N    8   -0.17665      0.99973     2.65499    0.02193     3.67665
      C    9   -0.13855      0.99945     2.13010    0.00900     3.13855
      C   10   -0.10348      0.99943     2.09584    0.00820     3.10348
      C   11   -0.10014      0.99948     2.09260    0.00805     3.10014
      C   12   -0.12442      0.99949     2.11713    0.00780     3.12442
      C   13    0.07272      0.99950     1.91718    0.01061     2.92728
      C   14   -0.02264      0.99937     2.01345    0.00982     3.02264
      C   15    0.00170      0.99939     1.99054    0.00837     2.99830
      C   16    0.07543      0.99950     1.91459    0.01048     2.92457
      C   17   -0.32012      0.99970     2.31689    0.00352     3.32012
      C   18   -0.20751      0.99965     2.20131    0.00655     3.20751
      C   19   -0.25092      0.99962     2.24255    0.00874     3.25092
      C   20    0.38823      0.99975     1.59433    0.01769     2.61177
      O   21   -0.35078      0.99982     3.33724    0.01372     4.35078
      O   22   -0.27555      0.99989     3.26361    0.01205     4.27555
      C   23    0.06829      0.99949     1.92147    0.01074     2.93171
      C   24    0.00978      0.99944     1.98240    0.00839     2.99022
      C   25   -0.05289      0.99938     2.04327    0.01024     3.05289
      C   26    0.06852      0.99953     1.92163    0.01032     2.93148
      C   27   -0.31801      0.99969     2.31447    0.00385     3.31801
      C   28   -0.09036      0.99972     2.08292    0.00772     3.09036
      C   29   -0.20624      0.99975     2.19925    0.00723     3.20624
      C   30    0.06201      0.99953     1.92851    0.00995     2.93799
      C   31    0.09328      0.99941     1.89904    0.00827     2.90672
      C   32   -0.10233      0.99936     2.09398    0.00899     3.10233
      C   33    0.10801      0.99953     1.88278    0.00967     2.89199
      C   34   -0.31941      0.99969     2.31630    0.00342     3.31941
      C   35    0.33603      0.99973     1.65958    0.00466     2.66397
      C   36    0.33388      0.99976     1.66260    0.00376     2.66612
      C   37    0.08054      0.99952     1.90931    0.01064     2.91946
      C   38   -0.00607      0.99943     1.99848    0.00816     3.00607
      C   39   -0.02424      0.99940     2.01463    0.01020     3.02424
      C   40    0.07107      0.99950     1.91884    0.01058     2.92893
      C   41   -0.31828      0.99970     2.31488    0.00370     3.31828
      C   42   -0.21818      0.99967     2.21136    0.00715     3.21818
      C   43   -0.25496      0.99963     2.24668    0.00864     3.25496
      C   44    0.37762      0.99973     1.60523    0.01742     2.62238
      O   45   -0.31176      0.99980     3.29656    0.01540     4.31176
      O   46   -0.29211      0.99989     3.28030    0.01192     4.29211
      N   47   -0.16885      0.99965     2.64799    0.02120     3.66885
      N   48   -0.18315      0.99969     2.66050    0.02296     3.68315
      N   49   -0.16999      0.99969     2.65116    0.01914     3.66999
      N   50   -0.19324      0.99965     2.67050    0.02309     3.69324
     Fe   51    0.79551      8.98341     3.19760    0.02349    12.20449
      H   52    0.10659      0.00000     0.39276    0.00064     0.39341
      H   53    0.11701      0.00000     0.38246    0.00053     0.38299
      H   54    0.11284      0.00000     0.38647    0.00069     0.38716
      H   55    0.20549      0.00000     0.29364    0.00087     0.29451
      H   56    0.10712      0.00000     0.39205    0.00083     0.39288
      H   57    0.11540      0.00000     0.38380    0.00079     0.38460
      H   58    0.11181      0.00000     0.38704    0.00115     0.38819
      H   59    0.12023      0.00000     0.37938    0.00039     0.37977
      H   60    0.10962      0.00000     0.38958    0.00080     0.39038
      H   61    0.10080      0.00000     0.38845    0.01075     0.39920
      H   62    0.10903      0.00000     0.39023    0.00075     0.39097
      H   63    0.11225      0.00000     0.38701    0.00074     0.38775
      H   64    0.11029      0.00000     0.38912    0.00059     0.38971
      H   65    0.09465      0.00000     0.40427    0.00109     0.40535
      H   66    0.11210      0.00000     0.38719    0.00071     0.38790
      H   67    0.11806      0.00000     0.38124    0.00070     0.38194
      H   68    0.12396      0.00000     0.37534    0.00071     0.37604
      H   69    0.24967      0.00000     0.24933    0.00100     0.25033
      H   70    0.10304      0.00000     0.39561    0.00136     0.39696
      H   71    0.10100      0.00000     0.39781    0.00119     0.39900
      H   72    0.10816      0.00000     0.39066    0.00118     0.39184
      H   73    0.11501      0.00000     0.38427    0.00072     0.38499
      H   74    0.11356      0.00000     0.38570    0.00073     0.38644
      H   75    0.25651      0.00000     0.24224    0.00124     0.24349
      H   76    0.11093      0.00000     0.38831    0.00076     0.38907
      H   77    0.11159      0.00000     0.38773    0.00068     0.38841
      H   78    0.11109      0.00000     0.38815    0.00076     0.38891
      H   79    0.10695      0.00000     0.39165    0.00140     0.39305
      H   80    0.11199      0.00000     0.38720    0.00081     0.38801
      H   81    0.11697      0.00000     0.38228    0.00075     0.38303
      H   82    0.10637      0.00000     0.39304    0.00059     0.39363
      H   83    0.09953      0.00000     0.39929    0.00118     0.40047
      H   84    0.09549      0.00000     0.40356    0.00095     0.40451
      H   85    0.09894      0.00000     0.40003    0.00103     0.40106
      H   86    0.10795      0.00000     0.39063    0.00142     0.39205
      H   87    0.11455      0.00000     0.38479    0.00066     0.38545
      H   88    0.11569      0.00000     0.38363    0.00068     0.38431
      H   89    0.10780      0.00000     0.39164    0.00056     0.39220
      H   90    0.09843      0.00000     0.40080    0.00077     0.40157
      H   91    0.08843      0.00000     0.41099    0.00058     0.41157
      H   92    0.08759      0.00000     0.41177    0.00065     0.41241
      H   93    0.10677      0.00000     0.39183    0.00140     0.39323
 =======================================================================
   * Total *    2.00000     62.96251   130.43908    0.59841   194.00000

 Normal termination of Gaussian 16 at Fri Sep  9 10:59:17 2022.
