 Gaussian 16, Revision A.03,

 ----------------------------------------------------------------------
 # PBE1PBE/def2TZVP empiricaldispersion=GD3BJ scf=maxcycle=999 geom=che
 ck pop=nbo
 ----------------------------------------------------------------------

 ----------
 351c_III_H
 ----------
 Structure from the checkpoint file:  "351c_III_H.chk"
 Charge =  1 Multiplicity = 6

 SCF Done:  E(UPBE1PBE) =  -3879.16410093     A.U. after   47 cycles

 Summary of Natural Population Analysis:

                                       Natural Population
                Natural  -----------------------------------------------
    Atom  No    Charge         Core      Valence    Rydberg      Total
 -----------------------------------------------------------------------
      C    1   -0.32015      0.99970     2.31710    0.00335     3.32015
      C    2    0.06978      0.99959     1.92171    0.00892     2.93022
      N    3   -0.22998      0.99969     2.72096    0.00934     3.72998
      C    4   -0.02869      0.99948     2.02023    0.00899     3.02869
      C    5    0.10616      0.99966     1.88391    0.01027     2.89384
      N    6   -0.16417      0.99970     2.64172    0.02275     3.66417
      C    7   -0.30933      0.99972     2.30365    0.00596     3.30933
      C    8   -0.26274      0.99964     2.25401    0.00909     3.26274
      S    9    0.33822      4.99903     2.64020    0.02256     7.66178
      C   10   -0.36632      0.99963     2.35793    0.00876     3.36632
      C   11   -0.11369      0.99949     2.10592    0.00828     3.11369
      C   12   -0.09302      0.99950     2.08591    0.00762     3.09302
      C   13   -0.09093      0.99937     2.08317    0.00838     3.09093
      C   14   -0.10107      0.99948     2.09389    0.00770     3.10107
      C   15    0.07174      0.99944     1.91860    0.01021     2.92826
      C   16    0.00083      0.99944     1.98990    0.00982     2.99917
      C   17    0.01432      0.99927     1.97536    0.01106     2.98568
      C   18    0.06742      0.99943     1.92227    0.01088     2.93258
      C   19   -0.32210      0.99971     2.31885    0.00355     3.32210
      C   20   -0.21209      0.99967     2.20431    0.00810     3.21209
      C   21   -0.24637      0.99962     2.23815    0.00860     3.24637
      C   22    0.37543      0.99974     1.60699    0.01785     2.62457
      O   23   -0.28469      0.99988     3.27189    0.01292     4.28469
      O   24   -0.33406      0.99984     3.32133    0.01289     4.33406
      C   25    0.07631      0.99945     1.91390    0.01034     2.92369
      C   26    0.02078      0.99945     1.97149    0.00828     2.97922
      C   27   -0.03085      0.99940     2.02084    0.01060     3.03085
      C   28    0.08064      0.99945     1.90937    0.01053     2.91936
      C   29   -0.31805      0.99970     2.31212    0.00624     3.31805
      C   30   -0.11266      0.99972     2.10637    0.00657     3.11266
      C   31   -0.16798      0.99975     2.16349    0.00474     3.16798
      C   32    0.07515      0.99945     1.91472    0.01068     2.92485
      C   33    0.01679      0.99942     1.97553    0.00826     2.98321
      C   34   -0.02662      0.99936     2.01633    0.01093     3.02662
      C   35    0.07819      0.99942     1.91172    0.01067     2.92181
      C   36   -0.31714      0.99970     2.31119    0.00625     3.31714
      C   37   -0.08386      0.99972     2.07572    0.00842     3.08386
      C   38   -0.18209      0.99975     2.17734    0.00501     3.18209
      C   39    0.07949      0.99943     1.91025    0.01083     2.92051
      C   40    0.01058      0.99943     1.98180    0.00819     2.98942
      C   41    0.00673      0.99944     1.98475    0.00908     2.99327
      C   42    0.07636      0.99944     1.91407    0.01013     2.92364
      C   43   -0.31865      0.99970     2.31524    0.00371     3.31865
      C   44   -0.21555      0.99967     2.20938    0.00650     3.21555
      C   45   -0.24051      0.99962     2.23251    0.00838     3.24051
      C   46    0.37906      0.99976     1.60358    0.01759     2.62094
      O   47   -0.28927      0.99988     3.27645    0.01294     4.28927
      O   48   -0.33858      0.99985     3.32744    0.01129     4.33858
      N   49   -0.18210      0.99969     2.65991    0.02251     3.68210
      N   50   -0.18088      0.99970     2.65930    0.02188     3.68088
      N   51   -0.17853      0.99967     2.65690    0.02196     3.67853
      N   52   -0.18416      0.99968     2.66301    0.02147     3.68416
     Fe   53    2.27434      8.99588     1.67930    0.05048    10.72566
      H   54    0.11147      0.00000     0.38783    0.00070     0.38853
      H   55    0.11249      0.00000     0.38702    0.00049     0.38751
      H   56    0.10213      0.00000     0.39680    0.00106     0.39787
      H   57    0.11757      0.00000     0.38181    0.00062     0.38243
      H   58    0.12342      0.00000     0.37583    0.00075     0.37658
      H   59    0.11033      0.00000     0.38872    0.00095     0.38967
      H   60    0.11946      0.00000     0.38000    0.00054     0.38054
      H   61    0.12620      0.00000     0.37326    0.00054     0.37380
      H   62    0.12037      0.00000     0.37897    0.00066     0.37963
      H   63    0.11723      0.00000     0.38205    0.00073     0.38277
      H   64    0.11723      0.00000     0.38180    0.00097     0.38277
      H   65    0.10847      0.00000     0.39048    0.00106     0.39153
      H   66    0.25816      0.00000     0.24049    0.00135     0.24184
      H   67    0.25600      0.00000     0.24274    0.00126     0.24400
      H   68    0.11216      0.00000     0.38718    0.00066     0.38784
      H   69    0.11996      0.00000     0.37933    0.00072     0.38004
      H   70    0.11558      0.00000     0.38361    0.00081     0.38442
      H   71    0.11818      0.00000     0.38109    0.00072     0.38182
      H   72    0.11457      0.00000     0.38473    0.00070     0.38543
      H   73    0.11464      0.00000     0.38464    0.00073     0.38536
      H   74    0.11395      0.00000     0.38533    0.00072     0.38605
      H   75    0.11477      0.00000     0.38411    0.00112     0.38523
      H   76    0.11698      0.00000     0.38232    0.00070     0.38302
      H   77    0.11032      0.00000     0.38911    0.00057     0.38968
      H   78    0.11508      0.00000     0.38423    0.00070     0.38492
      H   79    0.11698      0.00000     0.38166    0.00137     0.38302
      H   80    0.11839      0.00000     0.38093    0.00068     0.38161
      H   81    0.10936      0.00000     0.39024    0.00040     0.39064
      H   82    0.11447      0.00000     0.38487    0.00066     0.38553
      H   83    0.11678      0.00000     0.38193    0.00128     0.38322
      H   84    0.10626      0.00000     0.39334    0.00041     0.39374
      H   85    0.11961      0.00000     0.37977    0.00062     0.38039
      H   86    0.11814      0.00000     0.38125    0.00061     0.38186
      H   87    0.11377      0.00000     0.38484    0.00139     0.38623
      H   88    0.11109      0.00000     0.38834    0.00057     0.38891
      H   89    0.11894      0.00000     0.38044    0.00062     0.38106
      H   90    0.11941      0.00000     0.38001    0.00058     0.38059
      H   91    0.12036      0.00000     0.37891    0.00074     0.37964
      H   92    0.21623      0.00000     0.28295    0.00082     0.28377
      H   93    0.11697      0.00000     0.38224    0.00079     0.38303
      H   94    0.09985      0.00000     0.39940    0.00074     0.40015
      H   95    0.10154      0.00000     0.39778    0.00068     0.39846
      H   96    0.11041      0.00000     0.38874    0.00085     0.38959
      H   97    0.10344      0.00000     0.39581    0.00074     0.39656
      H   98    0.09910      0.00000     0.39992    0.00099     0.40090
      H   99    0.11080      0.00000     0.38833    0.00087     0.38920
 =======================================================================
   * Total *    3.00002     64.97428   135.38712    0.63858   200.99998

 Normal termination of Gaussian 16 at Mon Feb 20 02:21:40 2023.
 Gaussian 16:  ES64L-G16RevA.03 25-Dec-2016

 ----------------------------------------------------------------------
 # PBE1PBE/def2TZVP empiricaldispersion=GD3BJ int=(grid=ultrafine) geom
 =check guess=read scrf=(smd,solvent=Chloroform)
 ----------------------------------------------------------------------

 ---------------
 351c_III_H_solv
 ---------------
 Structure from the checkpoint file:  "351c_III_H.chk"
 Charge =  1 Multiplicity = 6

                         Standard orientation:
 ---------------------------------------------------------------------
 Center     Atomic      Atomic             Coordinates (Angstroms)
 Number     Number       Type             X           Y           Z
 ---------------------------------------------------------------------
      1          6           0        3.355220   -0.883368    5.019160
      2          6           0        2.335161   -0.535055    3.949218
      3          7           0        1.000325   -0.498289    4.190973
      4          6           0        2.531811   -0.337203    2.591447
      5          6           0        0.370357   -0.268666    3.009108
      6          7           0        1.306606   -0.164826    2.022108
      7          6           0       -0.793115    2.323822   -2.801540
      8          6           0        0.546469    1.589718   -2.981526
      9         16           0        0.598976   -0.064391   -2.259129
     10          6           0       -0.962090   -0.830809   -2.735455
     11          6           0       -2.472595   -0.020912    0.531683
     12          6           0        0.862364   -3.462374    0.029589
     13          6           0        4.221980   -0.087699   -0.764280
     14          6           0        1.010622    3.327315    0.341990
     15          6           0       -1.869601   -1.260294    0.449765
     16          6           0       -2.508043   -2.479553    0.567609
     17          6           0       -1.533808   -3.460682    0.493067
     18          6           0       -0.340683   -2.824911    0.245798
     19          6           0       -1.715440   -4.957978    0.615956
     20          6           0       -3.987309   -2.695827    0.724154
     21          6           0       -4.625826   -2.624295   -0.644109
     22          6           0       -6.124542   -2.840663   -0.541078
     23          8           0       -6.614281   -3.059233    0.561797
     24          8           0       -6.667193   -3.453518   -1.537584
     25          6           0        2.080293   -2.856022   -0.199285
     26          6           0        3.265483   -3.523949   -0.512008
     27          6           0        4.210682   -2.555865   -0.842753
     28          6           0        3.612086   -1.317416   -0.611085
     29          6           0        3.447881   -5.024800   -0.581209
     30          6           0        5.623900   -2.775317   -1.358427
     31          6           0        5.696660   -3.436339   -2.730498
     32          6           0        3.628597    1.144453   -0.551669
     33          6           0        4.286277    2.367009   -0.597596
     34          6           0        3.403427    3.311056   -0.130347
     35          6           0        2.182405    2.694756    0.008720
     36          6           0        5.739150    2.613031   -0.923939
     37          6           0        3.732675    4.737420    0.241809
     38          6           0        4.113903    5.639931   -0.912847
     39          6           0       -0.218464    2.719703    0.462390
     40          6           0       -1.412316    3.389717    0.697436
     41          6           0       -2.422829    2.433764    0.656202
     42          6           0       -1.813822    1.193622    0.495370
     43          6           0       -1.569387    4.884039    0.928578
     44          6           0       -3.910654    2.668551    0.796244
     45          6           0       -4.610684    2.688060   -0.554764
     46          6           0       -6.122585    2.837569   -0.368314
     47          8           0       -6.868833    2.340931   -1.215753
     48          8           0       -6.628734    3.681253    0.516931
     49          7           0       -0.551814   -1.487584    0.263036
     50          7           0        2.306338   -1.514656   -0.249746
     51          7           0        2.341695    1.370514   -0.184024
     52          7           0       -0.462163    1.375212    0.342083
     53         26           0        0.907417   -0.032164    0.076737
     54          1           0       -0.672038    3.119069   -2.095974
     55          1           0       -1.108556    2.725982   -3.741575
     56          1           0       -1.530643    1.637102   -2.441863
     57          1           0        0.748730    1.507578   -4.029020
     58          1           0        1.318001    2.179376   -2.532148
     59          1           0       -1.756316   -0.122866   -2.621776
     60          1           0       -0.908045   -1.145249   -3.756781
     61          1           0       -1.148276   -1.679118   -2.110470
     62          1           0       -4.242544    3.510405   -1.131930
     63          1           0       -4.406872    1.773745   -1.071861
     64          1           0       -4.070507    3.607033    1.284710
     65          1           0       -4.331395    1.887981    1.395067
     66          1           0       -7.569888    3.671279    0.705952
     67          1           0       -7.615568   -3.398666   -1.676059
     68          1           0       -4.436381   -1.662283   -1.072530
     69          1           0       -4.202053   -3.380239   -1.271696
     70          1           0       -4.398339   -1.934867    1.354148
     71          1           0       -4.167353   -3.657991    1.156271
     72          1           0       -2.725622   -5.172955    0.895628
     73          1           0       -1.499090   -5.421816   -0.323697
     74          1           0       -1.050035   -5.337870    1.362828
     75          1           0       -3.537700    0.001153    0.631510
     76          1           0       -1.874488    5.058495    1.939211
     77          1           0       -0.634766    5.372950    0.748717
     78          1           0       -2.309460    5.272439    0.260493
     79          1           0        1.056583    4.380834    0.523331
     80          1           0        6.219973    3.073047   -0.086029
     81          1           0        6.218179    1.681654   -1.142952
     82          1           0        5.809321    3.258812   -1.774200
     83          1           0        5.245734   -0.087617   -1.075452
     84          1           0        2.538260   -5.508350   -0.291952
     85          1           0        3.699606   -5.307734   -1.581950
     86          1           0        4.234729   -5.319391    0.081352
     87          1           0        0.850376   -4.532253    0.040335
     88          1           0        2.868092   -0.944786    5.969862
     89          1           0        3.806759   -1.825539    4.788234
     90          1           0        4.109465   -0.125175    5.053183
     91          1           0        3.473549   -0.322578    2.083690
     92          1           0        0.559044   -0.618699    5.080227
     93          1           0       -0.687687   -0.183201    2.874427
     94          1           0        4.854242   -3.396271   -3.389001
     95          1           0        6.590138   -3.940284   -3.034860
     96          1           0        6.494145   -2.489943   -0.805131
     97          1           0        3.742384    6.642540   -0.953478
     98          1           0        4.754795    5.275037   -1.688094
     99          1           0        3.698838    5.086459    1.252713
 ---------------------------------------------------------------------

 SCF Done:  E(UPBE1PBE) =  -3879.26016959     A.U. after   16 cycles

 Alpha virt. eigenvalues --    0.99838   1.00267   1.00641   1.00726   1.01143
 Alpha virt. eigenvalues --    1.01239   1.01594   1.01774   1.02204   1.02472
 Alpha virt. eigenvalues --    1.02687   1.03085   1.03359   1.03597   1.03779

  Beta  occ. eigenvalues -- -256.46355 -89.04924 -30.19532 -26.02741 -26.02724
  Beta  occ. eigenvalues --  -26.02679 -19.26739 -19.25761 -19.19901 -19.19602
  Beta  occ. eigenvalues --  -14.47211 -14.42235 -14.39473 -14.39387 -14.39083
  Beta  occ. eigenvalues --  -14.38939 -10.37393 -10.36420 -10.31257 -10.28486
  Beta  occ. eigenvalues --  -10.27708 -10.27553 -10.27470 -10.27428 -10.27335
  Beta  occ. eigenvalues --  -10.27322 -10.27308 -10.27241 -10.26999 -10.26760
  Beta  occ. eigenvalues --  -10.26112 -10.26107 -10.26015 -10.25544 -10.25324
  Beta  occ. eigenvalues --  -10.25138 -10.25083 -10.25072 -10.24999 -10.24961
  Beta  occ. eigenvalues --  -10.24932 -10.24898 -10.24893 -10.24751 -10.24628
  Beta  occ. eigenvalues --  -10.24582 -10.24292 -10.24247 -10.24009 -10.24003
  Beta  occ. eigenvalues --  -10.23380 -10.23294 -10.22646 -10.22335 -10.22235
  Beta  occ. eigenvalues --  -10.22091 -10.21797  -8.02919  -5.96567  -5.96245
  Beta  occ. eigenvalues --   -5.95712  -3.48721  -2.23282  -2.22994  -2.22937
  Beta  occ. eigenvalues --   -1.16306  -1.15291  -1.07865  -1.04604  -1.04537
  Beta  occ. eigenvalues --   -1.02620  -1.01988  -1.00975  -1.00440  -0.93724
  Beta  occ. eigenvalues --   -0.87639  -0.86266  -0.86010  -0.85768  -0.85018
  Beta  occ. eigenvalues --   -0.84624  -0.84397  -0.83640  -0.82037  -0.81617
  Beta  occ. eigenvalues --   -0.80937  -0.79108  -0.79015  -0.78228  -0.77113
  Beta  occ. eigenvalues --   -0.75978  -0.74762  -0.73855  -0.73603  -0.73012
  Beta  occ. eigenvalues --   -0.72107  -0.71167  -0.70514  -0.70379  -0.69357
  Beta  occ. eigenvalues --   -0.69086  -0.67297  -0.66286  -0.65018  -0.64418
  Beta  occ. eigenvalues --   -0.64150  -0.63739  -0.62466  -0.62172  -0.61642
  Beta  occ. eigenvalues --   -0.59596  -0.58402  -0.58099  -0.57872  -0.56051
  Beta  occ. eigenvalues --   -0.55278  -0.55169  -0.55108  -0.53624  -0.53268
  Beta  occ. eigenvalues --   -0.52306  -0.51939  -0.51468  -0.51398  -0.51279
  Beta  occ. eigenvalues --   -0.50921  -0.50271  -0.50032  -0.49886  -0.49582
  Beta  occ. eigenvalues --   -0.49320  -0.48762  -0.48240  -0.48069  -0.47562
  Beta  occ. eigenvalues --   -0.47383  -0.47076  -0.46861  -0.46679  -0.46471
  Beta  occ. eigenvalues --   -0.46058  -0.45847  -0.45749  -0.45547  -0.44894
  Beta  occ. eigenvalues --   -0.44778  -0.44367  -0.44106  -0.43899  -0.43775
  Beta  occ. eigenvalues --   -0.43656  -0.43493  -0.43368  -0.42949  -0.42902
  Beta  occ. eigenvalues --   -0.42853  -0.42573  -0.42368  -0.42150  -0.42017
  Beta  occ. eigenvalues --   -0.41915  -0.41616  -0.41161  -0.40892  -0.40718
  Beta  occ. eigenvalues --   -0.40437  -0.40389  -0.40206  -0.39737  -0.39484
  Beta  occ. eigenvalues --   -0.39225  -0.39139  -0.38821  -0.38631  -0.38254
  Beta  occ. eigenvalues --   -0.38144  -0.37845  -0.37679  -0.37229  -0.36333
  Beta  occ. eigenvalues --   -0.36088  -0.35785  -0.35304  -0.34561  -0.34101
  Beta  occ. eigenvalues --   -0.33885  -0.33235  -0.31827  -0.31697  -0.29896
  Beta  occ. eigenvalues --   -0.29699  -0.29009  -0.28233  -0.27405  -0.26715
  Beta  occ. eigenvalues --   -0.25904  -0.25452  -0.25129  -0.24340  -0.23018
  Beta  occ. eigenvalues --   -0.22244
  Beta virt. eigenvalues --   -0.12592  -0.12464  -0.10201  -0.09248  -0.08915
  Beta virt. eigenvalues --   -0.07161  -0.05738  -0.04235  -0.03886  -0.03016
  Beta virt. eigenvalues --   -0.02557  -0.01608  -0.00685   0.00999   0.01854

 Mulliken charges and spin densities:
               1          2
     1  C   -0.384035   0.001107
     2  C    0.114044   0.007313
     3  N   -0.181664   0.003870
     4  C   -0.215895   0.000783
     5  C   -0.018499   0.017140
     6  N    0.053945   0.049615
     7  C   -0.387544   0.001542
     8  C   -0.139043   0.001619
     9  S   -0.026946   0.100299
    10  C   -0.371882   0.002553
    11  C   -0.653269  -0.019422
    12  C   -0.530366  -0.017345
    13  C   -0.547075  -0.017932
    14  C   -0.561006  -0.021472
    15  C    0.250546   0.015944
    16  C    0.098146   0.018524
    17  C   -0.066324   0.014788
    18  C    0.238977   0.015585
    19  C   -0.405181   0.000448
    20  C   -0.345477  -0.000112
    21  C   -0.213806   0.000564
    22  C    0.301910   0.000205
    23  O   -0.381798   0.000067
    24  O   -0.377613   0.000040
    25  C    0.308126   0.017959
    26  C   -0.031735   0.014234
    27  C   -0.046737   0.016648
    28  C    0.287328   0.016882
    29  C   -0.379387   0.000852
    30  C   -0.302450  -0.010030
    31  C   -0.338939   0.012064
    32  C    0.338340   0.015120
    33  C   -0.038391   0.025882
    34  C    0.008336   0.015543
    35  C    0.252765   0.018520
    36  C   -0.392085   0.000293
    37  C   -0.289295   0.037358
    38  C   -0.326425  -0.034253
    39  C    0.309732   0.018152
    40  C   -0.053587   0.018252
    41  C    0.085358   0.023327
    42  C    0.244279   0.015788
    43  C   -0.421606   0.000843
    44  C   -0.366421  -0.000755
    45  C   -0.156750   0.000934
    46  C    0.275692   0.000151
    47  O   -0.390993   0.000135
    48  O   -0.384826  -0.000004
    49  N   -0.094365   0.057394
    50  N   -0.040078   0.047935
    51  N   -0.009442   0.056904
    52  N    0.053167   0.060496
    53  Fe  -0.169001   4.356522
    54  H    0.135874  -0.000157
    55  H    0.149234   0.000398
    56  H    0.106260   0.000048
    57  H    0.158472   0.003965
    58  H    0.155262   0.000303
    59  H    0.148831   0.000320
    60  H    0.179226   0.003651
    61  H    0.173481   0.000263
    62  H    0.156892  -0.000030
    63  H    0.145199   0.000011
    64  H    0.151211   0.000452
    65  H    0.143582   0.000384
    66  H    0.375430   0.000011
    67  H    0.372881   0.000014
    68  H    0.145804   0.000018
    69  H    0.158925  -0.000004
    70  H    0.133052   0.000313
    71  H    0.144218   0.000328
    72  H    0.151073   0.000335
    73  H    0.155035   0.000525
    74  H    0.156714   0.000421
    75  H    0.163955   0.000245
    76  H    0.162987   0.000701
    77  H    0.145983  -0.000048
    78  H    0.155403   0.000578
    79  H    0.155446   0.000380
    80  H    0.154788   0.001014
    81  H    0.144648  -0.000048
    82  H    0.152071   0.000996
    83  H    0.147345   0.000147
    84  H    0.138859  -0.000041
    85  H    0.156613   0.000557
    86  H    0.151602   0.000450
    87  H    0.162889   0.000030
    88  H    0.148762   0.000220
    89  H    0.160517   0.000163
    90  H    0.160587   0.000123
    91  H    0.189386   0.000961
    92  H    0.289087   0.001059
    93  H    0.210439  -0.000084
    94  H    0.179315  -0.000563
    95  H    0.170338  -0.000360
    96  H    0.178135   0.000863
    97  H    0.178369   0.002125
    98  H    0.177926   0.001844
    99  H    0.187143  -0.001750
 Sum of Mulliken charges =   1.00000   5.00000

 Dipole moment (field-independent basis, Debye):
    X=              4.2425    Y=              1.8632    Z=              4.8662  Tot=              6.7194
 Quadrupole moment (field-independent basis, Debye-Ang):
   XX=           -272.9353   YY=           -263.7286   ZZ=           -265.9638
   XY=             -8.6595   XZ=              6.0129   YZ=              5.3265

 Normal termination of Gaussian 16 at Mon Feb 20 11:11:36 2023.
