 Gaussian 16, Revision A.03,

 ----------------------------------------------------------------------
 # PBE1PBE/def2TZVP empiricaldispersion=GD3BJ int=(grid=ultrafine) geom
 =check pop=nbo
 ----------------------------------------------------------------------

 ----------
 1qpu_III_D
 ----------
 Structure from the checkpoint file:  "1qpu_III_D.chk"
 Charge =  1 Multiplicity = 2

 SCF Done:  E(UPBE1PBE) =  -3879.01113970     A.U. after   74 cycles

 Summary of Natural Population Analysis:

                                       Natural Population
                Natural  -----------------------------------------------
    Atom  No    Charge         Core      Valence    Rydberg      Total
 -----------------------------------------------------------------------
      C    1   -0.30522      0.99972     2.29977    0.00574     3.30522
      C    2   -0.26108      0.99966     2.25206    0.00936     3.26108
      S    3    0.27086      4.99919     2.70888    0.02107     7.72914
      C    4   -0.37321      0.99967     2.36457    0.00896     3.37321
      H    5    0.11133      0.00000     0.38810    0.00057     0.38867
      H    6    0.10735      0.00000     0.39161    0.00105     0.39265
      H    7    0.11575      0.00000     0.38346    0.00079     0.38425
      H    8    0.11000      0.00000     0.38866    0.00133     0.39000
      H    9    0.11484      0.00000     0.38450    0.00066     0.38516
      H   10    0.11120      0.00000     0.38794    0.00086     0.38880
      H   11    0.12433      0.00000     0.37520    0.00047     0.37567
      C   12   -0.32038      0.99969     2.31760    0.00309     3.32038
      C   13    0.05856      0.99958     1.93267    0.00919     2.94144
      N   14   -0.24243      0.99967     2.73263    0.01012     3.74243
      C   15   -0.04093      0.99947     2.03202    0.00945     3.04093
      C   16    0.09927      0.99968     1.89150    0.00956     2.90073
      N   17   -0.17271      0.99969     2.64586    0.02716     3.67271
      H   18    0.11307      0.00000     0.38625    0.00068     0.38693
      H   19    0.11334      0.00000     0.38600    0.00066     0.38666
      H   20    0.21421      0.00000     0.28495    0.00084     0.28579
      H   21    0.11794      0.00000     0.38135    0.00071     0.38206
      H   22    0.11247      0.00000     0.38652    0.00101     0.38753
      C   23   -0.12523      0.99942     2.11680    0.00901     3.12523
      C   24   -0.11931      0.99949     2.11196    0.00787     3.11931
      C   25   -0.13347      0.99950     2.12589    0.00808     3.13347
      C   26   -0.13383      0.99948     2.12637    0.00799     3.13383
      C   27    0.10317      0.99947     1.88645    0.01091     2.89683
      C   28   -0.00735      0.99940     1.99887    0.00907     3.00735
      C   29   -0.00930      0.99946     2.00144    0.00841     3.00930
      C   30    0.09182      0.99953     1.89795    0.01071     2.90818
      C   31   -0.32475      0.99969     2.31755    0.00751     3.32475
      C   32   -0.23150      0.99959     2.22346    0.00845     3.23150
      C   33   -0.25626      0.99962     2.24758    0.00906     3.25626
      C   34    0.39029      0.99974     1.59255    0.01742     2.60971
      O   35   -0.33776      0.99979     3.32299    0.01498     4.33776
      O   36   -0.28012      0.99989     3.26867    0.01156     4.28012
      C   37    0.09224      0.99953     1.89766    0.01057     2.90776
      C   38   -0.00138      0.99948     1.99325    0.00865     3.00138
      C   39   -0.01073      0.99941     2.00179    0.00953     3.01073
      C   40    0.10535      0.99950     1.88444    0.01071     2.89465
      C   41   -0.32109      0.99970     2.31491    0.00649     3.32109
      C   42   -0.05504      0.99971     2.04987    0.00545     3.05504
      C   43    0.33514      0.99975     1.66102    0.00409     2.66486
      C   44    0.09960      0.99952     1.89035    0.01053     2.90040
      C   45   -0.00186      0.99948     1.99387    0.00851     3.00186
      C   46   -0.04849      0.99941     2.03956    0.00951     3.04849
      C   47    0.11701      0.99951     1.87310    0.01039     2.88299
      C   48   -0.32314      0.99970     2.31617    0.00727     3.32314
      C   49   -0.07141      0.99971     2.06484    0.00685     3.07141
      C   50   -0.17620      0.99975     2.16974    0.00670     3.17620
      C   51    0.10887      0.99952     1.88135    0.01026     2.89113
      C   52    0.00072      0.99945     1.99175    0.00807     2.99928
      C   53   -0.01251      0.99942     2.00312    0.00997     3.01251
      C   54    0.10298      0.99946     1.88674    0.01082     2.89702
      C   55   -0.32164      0.99970     2.31531    0.00662     3.32164
      C   56   -0.22614      0.99962     2.21896    0.00755     3.22614
      C   57   -0.26188      0.99964     2.25319    0.00905     3.26188
      C   58    0.38862      0.99973     1.59403    0.01761     2.61138
      O   59   -0.29166      0.99989     3.27976    0.01201     4.29166
      O   60   -0.32796      0.99979     3.31309    0.01507     4.32796
      N   61   -0.20409      0.99965     2.68102    0.02341     3.70409
      N   62   -0.17254      0.99965     2.64807    0.02481     3.67254
      N   63   -0.20568      0.99966     2.68199    0.02403     3.70568
      N   64   -0.19432      0.99966     2.67064    0.02403     3.69432
     Fe   65   -0.07069      8.99567     4.05023    0.02478    13.07069
      H   66    0.11796      0.00000     0.38087    0.00117     0.38204
      H   67    0.11145      0.00000     0.38718    0.00136     0.38855
      H   68    0.11785      0.00000     0.38065    0.00149     0.38215
      H   69    0.11819      0.00000     0.38054    0.00127     0.38181
      H   70    0.11681      0.00000     0.38235    0.00084     0.38319
      H   71    0.11228      0.00000     0.38719    0.00053     0.38772
      H   72    0.11889      0.00000     0.38042    0.00069     0.38111
      H   73    0.11779      0.00000     0.38115    0.00106     0.38221
      H   74    0.13021      0.00000     0.36908    0.00071     0.36979
      H   75    0.12045      0.00000     0.37886    0.00069     0.37955
      H   76    0.10603      0.00000     0.39323    0.00074     0.39397
      H   77    0.11820      0.00000     0.38119    0.00061     0.38180
      H   78    0.11534      0.00000     0.38407    0.00059     0.38466
      H   79    0.11963      0.00000     0.37968    0.00069     0.38037
      H   80    0.11474      0.00000     0.38448    0.00079     0.38526
      H   81    0.11395      0.00000     0.38544    0.00062     0.38605
      H   82    0.11576      0.00000     0.38361    0.00063     0.38424
      H   83    0.11641      0.00000     0.38287    0.00072     0.38359
      H   84    0.11369      0.00000     0.38558    0.00073     0.38631
      H   85    0.11193      0.00000     0.38745    0.00061     0.38807
      H   86    0.11545      0.00000     0.38389    0.00066     0.38455
      H   87    0.11274      0.00000     0.38629    0.00098     0.38726
      H   88    0.12103      0.00000     0.37830    0.00068     0.37897
      H   89    0.11416      0.00000     0.38513    0.00072     0.38584
      H   90    0.25813      0.00000     0.24083    0.00104     0.24187
      H   91    0.26178      0.00000     0.23710    0.00113     0.23822
      H   92    0.08616      0.00000     0.41303    0.00081     0.41384
      H   93    0.09548      0.00000     0.40367    0.00085     0.40452
      H   94    0.10803      0.00000     0.39132    0.00065     0.39197
      H   95    0.11893      0.00000     0.38062    0.00046     0.38107
      H   96    0.10257      0.00000     0.39656    0.00087     0.39743
      H   97    0.10777      0.00000     0.39132    0.00090     0.39223
      H   98    0.09070      0.00000     0.40855    0.00075     0.40930
      H   99    0.12251      0.00000     0.37676    0.00073     0.37749
 =======================================================================
   * Total *    1.00000     64.97478   137.38975    0.63548   203.00000

 Normal termination of Gaussian 16 at Mon Jan 16 11:11:56 2023.
 Gaussian 16:  ES64L-G16RevA.03 25-Dec-2016

 ----------------------------------------------------------------------
 # PBE1PBE/def2TZVP empiricaldispersion=GD3BJ int=(grid=ultrafine) geom
 =check guess=read scrf=(smd,solvent=Chloroform)
 ----------------------------------------------------------------------

 ---------------
 1qpu_III_D_solv
 ---------------
 Structure from the checkpoint file:  "1qpu_III_D.chk"
 Charge =  1 Multiplicity = 2

                         Standard orientation:
 ---------------------------------------------------------------------
 Center     Atomic      Atomic             Coordinates (Angstroms)
 Number     Number       Type             X           Y           Z
 ---------------------------------------------------------------------
      1          6           0        1.825752    1.252355   -3.086128
      2          6           0        1.072856   -0.076888   -2.980033
      3         16           0       -0.585717    0.082651   -2.258544
      4          6           0       -1.628464   -1.060936   -3.185511
      5          1           0        2.798313    1.079553   -3.497423
      6          1           0        1.922062    1.686380   -2.112862
      7          1           0        0.945707   -0.443544   -3.996958
      8          1           0        1.667100   -0.806443   -2.433499
      9          1           0       -1.540405   -0.814697   -4.243691
     10          1           0       -1.322463   -2.090490   -3.012380
     11          1           0       -2.664881   -0.917830   -2.881459
     12          6           0       -1.977414   -1.100435    5.408808
     13          6           0       -1.484939   -0.518347    4.102313
     14          7           0       -0.620788    0.546696    4.063641
     15          6           0       -1.814848   -0.836854    2.805355
     16          6           0       -0.447308    0.880897    2.782705
     17          7           0       -1.120563    0.052896    1.966974
     18          1           0       -2.597910   -0.384887    5.906679
     19          1           0       -1.140219   -1.340335    6.030461
     20          1           0       -0.341983    1.091086    4.866984
     21          1           0       -2.490618   -1.616519    2.488413
     22          1           0        0.158643    1.717861    2.478881
     23          6           0        2.282875   -0.649626    0.218819
     24          6           0       -0.180020    3.497667   -0.067466
     25          6           0       -4.304226    0.845468   -0.325393
     26          6           0       -1.742306   -3.326906   -0.152844
     27          6           0        1.939749    0.658979    0.232795
     28          6           0        2.921456    1.683261    0.383036
     29          6           0        2.254750    2.865283    0.265184
     30          6           0        0.846805    2.574813    0.081558
     31          6           0        2.975545    4.151039    0.295799
     32          6           0        4.404935    1.419180    0.535877
     33          6           0        5.497493    2.318467   -0.083888
     34          6           0        6.880410    2.020923    0.467145
     35          8           0        7.834465    2.127103   -0.331112
     36          8           0        6.959555    1.746295    1.684795
     37          6           0       -1.523782    3.106942   -0.161928
     38          6           0       -2.621504    4.018632   -0.378982
     39          6           0       -3.773804    3.263782   -0.449087
     40          6           0       -3.391737    1.889955   -0.282770
     41          6           0       -2.441251    5.486181   -0.635844
     42          6           0       -5.201396    3.684581   -0.685696
     43          6           0       -5.528694    5.166449   -0.680472
     44          6           0       -3.949460   -0.501653   -0.280428
     45          6           0       -4.895900   -1.583832   -0.299036
     46          6           0       -4.190791   -2.767708   -0.272216
     47          6           0       -2.792824   -2.409419   -0.200375
     48          6           0       -6.370809   -1.371547   -0.155660
     49          6           0       -4.742565   -4.179894   -0.288919
     50          6           0       -6.129119   -4.356305   -0.903264
     51          6           0       -0.418234   -2.914098   -0.105400
     52          6           0        0.734324   -3.786411   -0.095803
     53          6           0        1.840490   -3.010932    0.033151
     54          6           0        1.399861   -1.662631    0.058408
     55          6           0        0.837412   -5.259024   -0.177488
     56          6           0        3.250818   -3.445904    0.325546
     57          6           0        4.110100   -3.488562   -0.922239
     58          6           0        5.417540   -2.759492   -0.721118
     59          8           0        5.628473   -1.801759   -1.493029
     60          8           0        6.130999   -3.135153    0.231962
     61          7           0        0.727846    1.220159    0.077713
     62          7           0       -2.051753    1.844920   -0.110924
     63          7           0       -2.718290   -1.033871   -0.192189
     64          7           0        0.063509   -1.632881   -0.047847
     65         26           0       -1.018939    0.150369   -0.005700
     66          1           0        0.075072    4.543025   -0.111256
     67          1           0       -5.340214    1.118064   -0.432865
     68          1           0       -1.951486   -4.385104   -0.152369
     69          1           0        3.323438   -0.899125    0.279691
     70          1           0        3.480991    4.198865   -0.668603
     71          1           0        2.342439    5.007450    0.508034
     72          1           0        3.712627    3.982789    1.080008
     73          1           0        4.471443    0.694863   -0.223704
     74          1           0        4.652499    0.830191    1.439153
     75          1           0        5.344420    3.378278    0.027153
     76          1           0        5.514732    2.115821   -1.160325
     77          1           0       -1.598312    5.554278   -1.312171
     78          1           0       -3.292357    5.956507   -1.118765
     79          1           0       -2.200802    6.006918    0.286644
     80          1           0       -6.769641   -0.912327   -1.056347
     81          1           0       -6.913134   -2.281234    0.071009
     82          1           0       -6.456310   -0.683448    0.682002
     83          1           0        0.823853   -5.533137   -1.228122
     84          1           0        1.818200   -5.449986    0.269763
     85          1           0        0.049440   -5.749940    0.375896
     86          1           0        3.423164   -4.264495    0.988734
     87          1           0        3.637755   -2.749194    1.018136
     88          1           0        3.582229   -2.929352   -1.681898
     89          1           0        4.276615   -4.517951   -1.241859
     90          1           0        6.359481   -4.063019    0.323935
     91          1           0        8.001145    1.434598   -0.974738
     92          1           0       -5.210578    5.787468   -1.491667
     93          1           0       -6.982858   -3.915208   -0.432665
     94          1           0        1.282956    1.919922   -3.722231
     95          1           0       -2.542460   -1.987817    5.213421
     96          1           0       -6.247104   -4.921034   -1.804408
     97          1           0       -4.191055   -5.006609    0.107667
     98          1           0       -6.077576    5.590242    0.134407
     99          1           0       -5.966410    2.955537   -0.853465
 ---------------------------------------------------------------------

 SCF Done:  E(UPBE1PBE) =  -3879.11082708     A.U. after   45 cycles

 Alpha virt. eigenvalues --    1.00274   1.00594   1.00754   1.00963   1.01214
 Alpha virt. eigenvalues --    1.01618   1.01633   1.01908   1.02107   1.02340
 Alpha virt. eigenvalues --    1.02708   1.02791   1.03255   1.03444   1.03847

  Beta  occ. eigenvalues -- -256.35378 -89.03813 -30.12436 -25.95299 -25.94957
  Beta  occ. eigenvalues --  -25.94669 -19.27574 -19.26197 -19.20150 -19.19697
  Beta  occ. eigenvalues --  -14.45745 -14.42127 -14.41905 -14.39858 -14.39566
  Beta  occ. eigenvalues --  -14.39193 -10.36909 -10.36686 -10.32778 -10.29747
  Beta  occ. eigenvalues --  -10.28902 -10.28514 -10.28010 -10.27897 -10.27889
  Beta  occ. eigenvalues --  -10.27870 -10.27712 -10.27645 -10.27210 -10.27198
  Beta  occ. eigenvalues --  -10.26562 -10.26534 -10.26235 -10.25980 -10.25532
  Beta  occ. eigenvalues --  -10.25401 -10.25276 -10.25046 -10.25008 -10.24916
  Beta  occ. eigenvalues --  -10.24908 -10.24131 -10.23988 -10.23837 -10.23745
  Beta  occ. eigenvalues --  -10.23709 -10.23689 -10.23467 -10.23458 -10.23318
  Beta  occ. eigenvalues --  -10.23235 -10.22960 -10.22927 -10.22345 -10.22267
  Beta  occ. eigenvalues --  -10.22185 -10.21417  -8.01658  -5.95329  -5.95021
  Beta  occ. eigenvalues --   -5.94494  -3.46979  -2.23146  -2.22418  -2.21855
  Beta  occ. eigenvalues --   -1.18247  -1.17290  -1.06925  -1.05226  -1.04382
  Beta  occ. eigenvalues --   -1.02347  -1.01061  -1.00449  -0.99639  -0.92147
  Beta  occ. eigenvalues --   -0.87056  -0.86050  -0.85655  -0.85267  -0.84731
  Beta  occ. eigenvalues --   -0.84455  -0.83745  -0.83559  -0.81565  -0.81094
  Beta  occ. eigenvalues --   -0.80323  -0.79335  -0.78796  -0.77767  -0.77427
  Beta  occ. eigenvalues --   -0.75819  -0.74532  -0.73913  -0.73043  -0.72959
  Beta  occ. eigenvalues --   -0.71558  -0.70755  -0.70581  -0.68950  -0.68521
  Beta  occ. eigenvalues --   -0.68350  -0.67758  -0.66400  -0.65610  -0.65144
  Beta  occ. eigenvalues --   -0.63625  -0.63230  -0.62068  -0.61569  -0.61556
  Beta  occ. eigenvalues --   -0.58598  -0.57906  -0.57502  -0.57193  -0.56379
  Beta  occ. eigenvalues --   -0.55756  -0.55205  -0.54419  -0.54138  -0.53797
  Beta  occ. eigenvalues --   -0.52269  -0.52167  -0.51456  -0.51289  -0.50432
  Beta  occ. eigenvalues --   -0.50117  -0.49604  -0.49488  -0.49075  -0.48874
  Beta  occ. eigenvalues --   -0.48381  -0.48226  -0.47964  -0.47802  -0.47360
  Beta  occ. eigenvalues --   -0.47051  -0.46748  -0.46687  -0.46546  -0.46432
  Beta  occ. eigenvalues --   -0.46328  -0.45940  -0.45558  -0.45153  -0.45041
  Beta  occ. eigenvalues --   -0.44655  -0.44540  -0.44166  -0.44020  -0.43903
  Beta  occ. eigenvalues --   -0.43745  -0.43621  -0.43504  -0.43129  -0.42761
  Beta  occ. eigenvalues --   -0.42591  -0.42496  -0.42267  -0.42038  -0.41917
  Beta  occ. eigenvalues --   -0.41709  -0.41242  -0.40805  -0.40709  -0.40087
  Beta  occ. eigenvalues --   -0.39934  -0.39662  -0.39597  -0.39177  -0.38991
  Beta  occ. eigenvalues --   -0.38441  -0.38289  -0.37735  -0.37226  -0.36914
  Beta  occ. eigenvalues --   -0.36572  -0.36520  -0.36249  -0.35889  -0.35249
  Beta  occ. eigenvalues --   -0.34913  -0.34482  -0.34183  -0.33869  -0.33656
  Beta  occ. eigenvalues --   -0.32479  -0.32080  -0.32015  -0.31251  -0.30185
  Beta  occ. eigenvalues --   -0.29463  -0.29413  -0.29082  -0.27584  -0.26542
  Beta  occ. eigenvalues --   -0.25623  -0.24604  -0.24308  -0.23588  -0.23008
  Beta  occ. eigenvalues --   -0.22172  -0.21375  -0.20299
  Beta virt. eigenvalues --   -0.15429  -0.10904  -0.09629  -0.08421  -0.07698
  Beta virt. eigenvalues --   -0.02867  -0.01761  -0.01583  -0.01329   0.00266
  Beta virt. eigenvalues --    0.00768   0.01337   0.02004   0.02415   0.02866

 Mulliken charges and spin densities:
               1          2
     1  C   -0.355092  -0.000061
     2  C   -0.168518   0.000273
     3  S   -0.013496   0.000578
     4  C   -0.407361  -0.000236
     5  H    0.139827   0.000046
     6  H    0.117996   0.000044
     7  H    0.155145   0.000059
     8  H    0.138909   0.000130
     9  H    0.175912   0.000010
    10  H    0.153835  -0.000072
    11  H    0.174312   0.000020
    12  C   -0.408725   0.000068
    13  C    0.146626  -0.000625
    14  N   -0.199278  -0.000321
    15  C   -0.248221   0.001282
    16  C   -0.003671   0.000970
    17  N    0.076453   0.000072
    18  H    0.153436  -0.000009
    19  H    0.154874  -0.000037
    20  H    0.289334   0.000015
    21  H    0.173679  -0.000093
    22  H    0.195061  -0.000074
    23  C   -0.467661   0.009104
    24  C   -0.567125   0.023175
    25  C   -0.558859  -0.014920
    26  C   -0.577044  -0.023718
    27  C    0.189852   0.005725
    28  C    0.010376  -0.004913
    29  C    0.026479   0.005243
    30  C    0.226047  -0.007101
    31  C   -0.496573  -0.000046
    32  C   -0.262293   0.000579
    33  C   -0.286149  -0.000026
    34  C    0.325364   0.000006
    35  O   -0.364342  -0.000001
    36  O   -0.389815  -0.000006
    37  C    0.229903  -0.002667
    38  C   -0.031671   0.023017
    39  C   -0.082688   0.036241
    40  C    0.287398   0.014283
    41  C   -0.368792   0.003233
    42  C    0.021719  -0.007315
    43  C   -0.323913   1.015447
    44  C    0.193419   0.013731
    45  C   -0.030480   0.010529
    46  C   -0.024482  -0.004818
    47  C    0.253890   0.031925
    48  C   -0.405908  -0.000792
    49  C   -0.205460   0.005796
    50  C   -0.367540  -0.001491
    51  C    0.262496   0.031350
    52  C   -0.012101  -0.009128
    53  C   -0.106292   0.012570
    54  C    0.176778   0.001282
    55  C   -0.441413   0.000552
    56  C   -0.340047  -0.001285
    57  C   -0.226852   0.000450
    58  C    0.324127   0.000088
    59  O   -0.415727   0.000120
    60  O   -0.334661  -0.000007
    61  N   -0.037320   0.008949
    62  N    0.129281   0.004843
    63  N   -0.027265  -0.015461
    64  N    0.009204  -0.005231
    65  Fe  -0.288658  -0.112543
    66  H    0.170086  -0.000987
    67  H    0.158047   0.001479
    68  H    0.151379   0.000996
    69  H    0.179413  -0.000498
    70  H    0.173052   0.000255
    71  H    0.149093   0.000059
    72  H    0.170819   0.000112
    73  H    0.126992  -0.000189
    74  H    0.170379  -0.000169
    75  H    0.160965  -0.000007
    76  H    0.139647   0.000001
    77  H    0.164246   0.000974
    78  H    0.135616  -0.002469
    79  H    0.168956   0.002272
    80  H    0.151176   0.000614
    81  H    0.141091  -0.000002
    82  H    0.152450   0.000651
    83  H    0.157938  -0.000342
    84  H    0.143641  -0.000075
    85  H    0.145315  -0.000197
    86  H    0.162324   0.000202
    87  H    0.161818   0.000261
    88  H    0.128314  -0.000017
    89  H    0.149136  -0.000016
    90  H    0.395629  -0.000002
    91  H    0.397455  -0.000000
    92  H    0.204082  -0.035620
    93  H    0.177328   0.000134
    94  H    0.126891   0.000013
    95  H    0.158050   0.000001
    96  H    0.177258   0.000189
    97  H    0.187567  -0.000329
    98  H    0.196747  -0.035650
    99  H    0.200864   0.019549
 Sum of Mulliken charges =   1.00000   1.00000

 Dipole moment (field-independent basis, Debye):
    X=             -9.0938    Y=              2.6374    Z=              0.8270  Tot=              9.5046
 Quadrupole moment (field-independent basis, Debye-Ang):
   XX=           -249.3708   YY=           -218.0094   ZZ=           -280.1393
   XY=            -65.6229   XZ=            -18.8173   YZ=             -7.7466

 Normal termination of Gaussian 16 at Tue Jan 17 12:26:39 2023.
