 Gaussian 16, Revision A.03,

 ---------------------------------------------------------------------
 # polar def2tzvp empiricaldispersion=gd3bj int=grid=ultrafine pbe1pbe
 ---------------------------------------------------------------------

 ---------
 1cyi_II_S
 ---------
 Symbolic Z-matrix:
 Charge =  0 Multiplicity = 1

 SCF Done:  E(RPBE1PBE) =  -3880.27292296     A.U. after   34 cycles

  Exact polarizability: 911.300 -65.068 964.166 -48.472 148.499 497.225
 Approx polarizability:2612.891********7422.242********2626.8121735.624

 Normal termination of Gaussian 16 at Sat Jan  7 11:03:30 2023.
 Gaussian 16:  ES64L-G16RevA.03 25-Dec-2016

 ----------------------------------------------------------------------
 # PBE1PBE/def2TZVP empiricaldispersion=GD3BJ int=(grid=ultrafine) geom
 =check guess=read pop=nbo scf=qc
 ----------------------------------------------------------------------

 -------------
 1cyi_II_S_nbo
 -------------
 Structure from the checkpoint file:  "1cyi_II_S.chk"
 Charge =  0 Multiplicity = 1

                         Standard orientation:
 ---------------------------------------------------------------------
 Center     Atomic      Atomic             Coordinates (Angstroms)
 Number     Number       Type             X           Y           Z
 ---------------------------------------------------------------------
      1          6           0        2.941753   -2.017817    4.609241
      2          6           0        1.884142   -1.316219    3.762055
      3          7           0        0.636412   -0.900877    4.108486
      4          6           0        2.067689   -1.128262    2.426675
      5          6           0        0.067600   -0.498718    2.963366
      6          7           0        0.878710   -0.570339    1.950658
      7          6           0       -0.664884    2.911386   -2.722830
      8          6           0        0.386119    1.884299   -3.098036
      9         16           0        0.333944    0.313387   -2.320729
     10          6           0        1.379786   -0.633353   -3.573512
     11         26           0        0.703926   -0.048035   -0.091780
     12          6           0       -2.671478   -0.294585   -0.040042
     13          6           0        1.023665   -3.442275   -0.829414
     14          6           0        4.107684    0.282866   -0.452566
     15          6           0        0.600945    3.190967    1.063833
     16          7           0       -0.580202   -1.533922   -0.291471
     17          6           0       -1.932311   -1.493578   -0.186456
     18          6           0       -2.462843   -2.758176   -0.413169
     19          6           0       -1.457128   -3.615151   -0.747915
     20          6           0       -0.291634   -2.871440   -0.649131
     21          6           0       -1.461695   -5.065156   -1.186274
     22          6           0       -3.947515   -3.054342   -0.279608
     23          6           0       -4.330988   -3.115006    1.187378
     24          6           0       -5.827165   -3.212755    1.388850
     25          8           0       -6.585992   -2.925611    0.455847
     26          8           0       -6.261313   -3.553635    2.493432
     27          7           0        2.258112   -1.274995   -0.634441
     28          6           0        2.210565   -2.645571   -0.838794
     29          6           0        3.503230   -3.153351   -1.067901
     30          6           0        4.417426   -2.121373   -1.023998
     31          6           0        3.595542   -0.967732   -0.782210
     32          6           0        3.715309   -4.679697   -1.219337
     33          6           0        5.836710   -2.140147   -1.163470
     34          6           0        6.413780   -2.250440   -2.419199
     35          7           0        2.047379    1.490460    0.195295
     36          6           0        3.430275    1.430181    0.035720
     37          6           0        4.138017    2.635859    0.527466
     38          6           0        3.088230    3.414536    0.915513
     39          6           0        1.850826    2.712343    0.733234
     40          6           0        5.640438    2.835685    0.894712
     41          6           0        3.234961    4.652823    1.548784
     42          6           0        3.775723    5.839114    0.845934
     43          7           0       -0.686896    1.186443    0.343650
     44          6           0       -0.587988    2.517034    0.803619
     45          6           0       -1.903459    3.149209    0.758678
     46          6           0       -2.740363    2.155125    0.335414
     47          6           0       -2.053832    0.966135    0.138617
     48          6           0       -2.166121    4.607620    1.063835
     49          6           0       -4.199202    2.166281    0.121882
     50          6           0       -4.465445    2.773033   -1.232802
     51          6           0       -5.908176    3.117865   -1.389408
     52          8           0       -6.718485    2.170506   -1.421098
     53          8           0       -6.238600    4.321632   -1.429918
     54          1           0        3.638418   -2.516954    3.968601
     55          1           0        3.459301   -1.294737    5.204388
     56          1           0        2.469142   -2.733723    5.248785
     57          1           0        2.943638   -1.360381    1.857698
     58          1           0       -0.943528   -0.156243    2.891037
     59          1           0       -0.842546    3.560230   -3.554899
     60          1           0       -1.573785    2.411856   -2.459640
     61          1           0       -0.319797    3.486674   -1.889249
     62          1           0        1.313935    2.314627   -2.783591
     63          1           0        0.213990    1.682631   -4.134666
     64          1           0        2.081122   -1.432522   -3.453692
     65          1           0        2.154325   -0.115581   -3.047297
     66          1           0        0.713451   -1.413366   -3.269413
     67          1           0       -3.740041   -0.343821   -0.065520
     68          1           0        1.112441   -4.500468   -0.960743
     69          1           0        5.163262    0.395878   -0.586293
     70          1           0        0.541495    4.141422    1.551685
     71          1           0       -0.604248   -5.255742   -1.797307
     72          1           0       -1.433268   -5.698450   -0.324282
     73          1           0       -2.350795   -5.265489   -1.746870
     74          1           0       -4.102498   -4.034964   -0.678682
     75          1           0       -4.466772   -2.217933   -0.698765
     76          1           0       -4.034163   -2.178575    1.611515
     77          1           0       -3.919618   -4.027741    1.564989
     78          1           0        4.551901   -4.861607   -1.861149
     79          1           0        3.902779   -5.110839   -0.258154
     80          1           0        2.837799   -5.121382   -1.643352
     81          1           0        5.770301   -1.803483   -3.147940
     82          1           0        7.359019   -1.749030   -2.422628
     83          1           0        5.928315    3.844212    0.682817
     84          1           0        5.782723    2.635472    1.936139
     85          1           0        2.969082    6.476870    0.550134
     86          1           0        4.431292    6.373771    1.501123
     87          1           0       -3.086161    4.699244    1.602381
     88          1           0       -2.232552    5.157252    0.148198
     89          1           0       -1.365409    4.997780    1.656740
     90          1           0       -4.618953    2.827515    0.850908
     91          1           0       -4.518693    1.146032    0.078080
     92          1           0       -4.256287    2.009932   -1.953101
     93          1           0       -3.927925    3.697770   -1.261666
     94          1           0       -7.059639   -4.083502    2.552732
     95          1           0       -7.206449    1.982976   -2.226283
     96          1           0        6.557402   -3.283932   -2.656197
     97          1           0        0.230130   -0.896444    5.022223
     98          1           0        4.317458    5.523712   -0.021214
     99          1           0        6.241106    2.164475    0.317153
    100          1           0        2.947017    4.746304    2.575064
    101          1           0        6.458496   -2.068833   -0.295601
 ---------------------------------------------------------------------

 SCF Done:  E(RPBE1PBE) =  -3880.27292296     a.u. after    1 cycles

 The electronic state is 1-A.
 Alpha  occ. eigenvalues -- -256.31401 -89.04134 -30.08304 -25.91128 -25.90791
 Alpha  occ. eigenvalues --  -25.90682 -19.26550 -19.24975 -19.17326 -19.17263
 Alpha  occ. eigenvalues --  -14.45353 -14.39174 -14.37261 -14.37082 -14.36638
 Alpha  occ. eigenvalues --  -14.36284 -10.34679 -10.34030 -10.28135 -10.26287
 Alpha  occ. eigenvalues --  -10.24952 -10.24659 -10.24107 -10.24074 -10.24055
 Alpha  occ. eigenvalues --  -10.24032 -10.23986 -10.23537 -10.23296 -10.23131
 Alpha  occ. eigenvalues --  -10.22926 -10.22863 -10.22803 -10.22565 -10.22530
 Alpha  occ. eigenvalues --  -10.22496 -10.22157 -10.22083 -10.21869 -10.21716
 Alpha  occ. eigenvalues --  -10.21702 -10.21632 -10.21603 -10.21589 -10.21334
 Alpha  occ. eigenvalues --  -10.21239 -10.21233 -10.21188 -10.21145 -10.21086
 Alpha  occ. eigenvalues --  -10.21067 -10.21022 -10.20790 -10.20775 -10.20234
 Alpha  occ. eigenvalues --  -10.20032 -10.18654  -8.01665  -5.95470  -5.95003
 Alpha  occ. eigenvalues --   -5.94382  -3.42786  -2.18785  -2.18129  -2.17964
 Alpha  occ. eigenvalues --   -1.18079  -1.16203  -1.06708  -1.02884  -1.01959
 Alpha  occ. eigenvalues --   -0.97461  -0.96819  -0.96191  -0.95354  -0.91561
 Alpha  occ. eigenvalues --   -0.84959  -0.84678  -0.83684  -0.83410  -0.83176
 Alpha  occ. eigenvalues --   -0.82533  -0.81079  -0.80697  -0.80383  -0.79039
 Alpha  occ. eigenvalues --   -0.78296  -0.77962  -0.77603  -0.76745  -0.74789
 Alpha  occ. eigenvalues --   -0.74265  -0.73107  -0.72320  -0.72240  -0.71714
 Alpha  occ. eigenvalues --   -0.70407  -0.69180  -0.68909  -0.68769  -0.66039
 Alpha  occ. eigenvalues --   -0.65786  -0.65262  -0.64669  -0.64058  -0.62949
 Alpha  occ. eigenvalues --   -0.62625  -0.62314  -0.59354  -0.58617  -0.57425
 Alpha  occ. eigenvalues --   -0.56571  -0.56124  -0.54688  -0.54309  -0.53008
 Alpha  occ. eigenvalues --   -0.52826  -0.51883  -0.51800  -0.51528  -0.51271
 Alpha  occ. eigenvalues --   -0.50788  -0.50286  -0.50127  -0.49896  -0.49472
 Alpha  occ. eigenvalues --   -0.49111  -0.48677  -0.48387  -0.48020  -0.47772
 Alpha  occ. eigenvalues --   -0.47611  -0.46669  -0.46194  -0.45763  -0.45643
 Alpha  occ. eigenvalues --   -0.45146  -0.44887  -0.44793  -0.44507  -0.44311
 Alpha  occ. eigenvalues --   -0.44174  -0.44032  -0.43626  -0.43331  -0.43238
 Alpha  occ. eigenvalues --   -0.43058  -0.42864  -0.42594  -0.42443  -0.42287
 Alpha  occ. eigenvalues --   -0.42163  -0.41972  -0.41343  -0.40913  -0.40725
 Alpha  occ. eigenvalues --   -0.40672  -0.40211  -0.40009  -0.39771  -0.39396
 Alpha  occ. eigenvalues --   -0.39067  -0.39011  -0.38739  -0.38562  -0.38139
 Alpha  occ. eigenvalues --   -0.38095  -0.37815  -0.37785  -0.37623  -0.37116
 Alpha  occ. eigenvalues --   -0.37096  -0.36717  -0.36546  -0.36274  -0.35760
 Alpha  occ. eigenvalues --   -0.35589  -0.34673  -0.34080  -0.33911  -0.33232
 Alpha  occ. eigenvalues --   -0.32920  -0.32681  -0.32335  -0.32188  -0.32113
 Alpha  occ. eigenvalues --   -0.31812  -0.30738  -0.30150  -0.27792  -0.27696
 Alpha  occ. eigenvalues --   -0.27402  -0.26875  -0.26635  -0.25487  -0.24523
 Alpha  occ. eigenvalues --   -0.23931  -0.23719  -0.22639  -0.20374  -0.19783
 Alpha  occ. eigenvalues --   -0.19176  -0.18739  -0.18686  -0.18205  -0.13286
 Alpha virt. eigenvalues --   -0.11244  -0.06958  -0.06781  -0.03786  -0.01377
 Alpha virt. eigenvalues --   -0.00379   0.00633   0.01597   0.02176   0.02487
 Alpha virt. eigenvalues --    0.03253   0.03542   0.03857   0.04147   0.04655

 Mulliken charges:
               1
     1  C   -0.378925
     2  C    0.147069
     3  N   -0.224341
     4  C   -0.195747
     5  C    0.022334
     6  N   -0.007237
     7  C   -0.357396
     8  C   -0.147912
     9  S    0.055771
    10  C   -0.641572
    11  Fe  -0.439550
    12  C   -0.441228
    13  C   -0.505665
    14  C   -0.475168
    15  C   -0.535485
    16  N    0.077700
    17  C    0.191079
    18  C    0.031397
    19  C   -0.058195
    20  C    0.185324
    21  C   -0.418779
    22  C   -0.247812
    23  C   -0.176470
    24  C    0.237866
    25  O   -0.368685
    26  O   -0.321570
    27  N   -0.003744
    28  C    0.227287
    29  C   -0.057037
    30  C    0.080570
    31  C    0.039235
    32  C   -0.384671
    33  C   -0.338697
    34  C   -0.303954
    35  N   -0.004466
    36  C    0.379719
    37  C   -0.220951
    38  C    0.145592
    39  C    0.166922
    40  C   -0.333778
    41  C   -0.308494
    42  C   -0.307726
    43  N    0.095177
    44  C    0.256228
    45  C   -0.086437
    46  C    0.132692
    47  C    0.067877
    48  C   -0.387925
    49  C   -0.295991
    50  C   -0.112222
    51  C    0.254958
    52  O   -0.347014
    53  O   -0.351866
    54  H    0.148588
    55  H    0.140262
    56  H    0.124632
    57  H    0.157743
    58  H    0.153673
    59  H    0.135870
    60  H    0.110765
    61  H    0.126444
    62  H    0.118752
    63  H    0.146819
    64  H    0.227681
    65  H    0.225483
    66  H    0.227992
    67  H    0.119191
    68  H    0.123698
    69  H    0.114907
    70  H    0.097649
    71  H    0.127697
    72  H    0.139130
    73  H    0.139945
    74  H    0.098762
    75  H    0.123493
    76  H    0.130459
    77  H    0.120686
    78  H    0.129248
    79  H    0.136895
    80  H    0.122435
    81  H    0.133256
    82  H    0.125065
    83  H    0.132575
    84  H    0.132019
    85  H    0.141024
    86  H    0.122183
    87  H    0.135204
    88  H    0.145645
    89  H    0.128732
    90  H    0.108902
    91  H    0.104865
    92  H    0.105697
    93  H    0.112492
    94  H    0.348922
    95  H    0.355706
    96  H    0.126341
    97  H    0.239175
    98  H    0.132563
    99  H    0.126848
   100  H    0.129287
   101  H    0.136514
 Sum of Mulliken charges =  -0.00000

 Dipole moment (field-independent basis, Debye):
    X=              2.9033    Y=             -4.4476    Z=              6.9693  Tot=              8.7625
 Quadrupole moment (field-independent basis, Debye-Ang):
   XX=           -323.5965   YY=           -313.7490   ZZ=           -301.3771
   XY=             27.7581   XZ=             -1.8140   YZ=             -8.0701

 Summary of Natural Population Analysis:

                                       Natural Population
                Natural  -----------------------------------------------
    Atom  No    Charge         Core      Valence    Rydberg      Total
 -----------------------------------------------------------------------
      C    1   -0.63106      1.99939     4.62575    0.00593     6.63106
      C    2    0.10190      1.99903     3.87977    0.01929     5.89810
      N    3   -0.49683      1.99934     5.47695    0.02055     7.49683
      C    4   -0.07993      1.99890     4.06146    0.01957     6.07993
      C    5    0.19631      1.99933     3.78446    0.01990     5.80369
      N    6   -0.33362      1.99938     5.27933    0.05491     7.33362
      C    7   -0.60571      1.99943     4.59479    0.01149     6.60571
      C    8   -0.58081      1.99937     4.55834    0.02310     6.58081
      S    9    0.70361      9.99811     5.24801    0.05026    15.29639
      C   10   -1.33647      1.99913     5.26790    0.06943     7.33647
     Fe   11   -0.08117     17.98903     8.04298    0.04915    26.08117
      C   12   -0.23827      1.99904     4.22295    0.01628     6.23827
      C   13   -0.21918      1.99910     4.20399    0.01608     6.21918
      C   14   -0.23755      1.99903     4.22137    0.01715     6.23755
      C   15   -0.25104      1.99896     4.23422    0.01786     6.25104
      N   16   -0.35648      1.99933     5.30852    0.04862     7.35648
      C   17    0.13213      1.99896     3.84736    0.02156     5.86787
      C   18   -0.03498      1.99881     4.01649    0.01968     6.03498
      C   19   -0.04707      1.99873     4.03065    0.01769     6.04707
      C   20    0.13279      1.99892     3.84690    0.02139     5.86721
      C   21   -0.63297      1.99940     4.62626    0.00731     6.63297
      C   22   -0.41233      1.99937     4.39761    0.01535     6.41233
      C   23   -0.50172      1.99927     4.48569    0.01676     6.50172
      C   24    0.76385      1.99954     3.19878    0.03784     5.23615
      O   25   -0.61533      1.99978     6.59033    0.02522     8.61533
      O   26   -0.65318      1.99958     6.62525    0.02834     8.65318
      N   27   -0.41402      1.99941     5.36309    0.05152     7.41402
      C   28    0.11653      1.99900     3.86153    0.02295     5.88347
      C   29   -0.01562      1.99881     3.99863    0.01818     6.01562
      C   30   -0.13066      1.99891     4.10826    0.02348     6.13066
      C   31    0.13629      1.99898     3.84124    0.02349     5.86371
      C   32   -0.63269      1.99940     4.62530    0.00799     6.63269
      C   33   -0.14067      1.99927     4.11577    0.02563     6.14067
      C   34   -0.66906      1.99933     4.65331    0.01642     6.66906
      N   35   -0.35527      1.99938     5.30666    0.04923     7.35527
      C   36    0.14619      1.99910     3.83388    0.02082     5.85381
      C   37   -0.01448      1.99876     3.99772    0.01799     6.01448
      C   38   -0.13998      1.99888     4.11852    0.02258     6.13998
      C   39    0.16455      1.99904     3.81368    0.02274     5.83545
      C   40   -0.63112      1.99937     4.62367    0.00808     6.63112
      C   41   -0.11132      1.99931     4.08937    0.02264     6.11132
      C   42   -0.66214      1.99943     4.64919    0.01352     6.66214
      N   43   -0.37761      1.99931     5.33214    0.04615     7.37761
      C   44    0.15954      1.99904     3.82034    0.02108     5.84046
      C   45   -0.02556      1.99889     4.00904    0.01763     6.02556
      C   46   -0.04969      1.99885     4.03115    0.01969     6.04969
      C   47    0.13969      1.99891     3.84041    0.02099     5.86031
      C   48   -0.63770      1.99939     4.63065    0.00766     6.63770
      C   49   -0.41521      1.99929     4.40188    0.01405     6.41521
      C   50   -0.49621      1.99925     4.47965    0.01730     6.49621
      C   51    0.76799      1.99947     3.19523    0.03730     5.23201
      O   52   -0.68699      1.99958     6.65775    0.02966     8.68699
      O   53   -0.58244      1.99979     6.55901    0.02364     8.58244
      H   54    0.23330      0.00000     0.76577    0.00093     0.76670
      H   55    0.21784      0.00000     0.78073    0.00143     0.78216
      H   56    0.21340      0.00000     0.78519    0.00141     0.78660
      H   57    0.23634      0.00000     0.76186    0.00180     0.76366
      H   58    0.21471      0.00000     0.78343    0.00186     0.78529
      H   59    0.21792      0.00000     0.78107    0.00102     0.78208
      H   60    0.21523      0.00000     0.78217    0.00261     0.78477
      H   61    0.21763      0.00000     0.78087    0.00150     0.78237
      H   62    0.21633      0.00000     0.78112    0.00255     0.78367
      H   63    0.24932      0.00000     0.74807    0.00261     0.75068
      H   64    0.38424      0.00000     0.61449    0.00126     0.61576
      H   65    0.39071      0.00000     0.60611    0.00318     0.60929
      H   66    0.38569      0.00000     0.61229    0.00202     0.61431
      H   67    0.20689      0.00000     0.78989    0.00322     0.79311
      H   68    0.21327      0.00000     0.78364    0.00309     0.78673
      H   69    0.21257      0.00000     0.78358    0.00385     0.78743
      H   70    0.21653      0.00000     0.77980    0.00367     0.78347
      H   71    0.21914      0.00000     0.77936    0.00149     0.78086
      H   72    0.21726      0.00000     0.78109    0.00165     0.78274
      H   73    0.22128      0.00000     0.77721    0.00151     0.77872
      H   74    0.21903      0.00000     0.77928    0.00168     0.78097
      H   75    0.23238      0.00000     0.76557    0.00205     0.76762
      H   76    0.24007      0.00000     0.75827    0.00165     0.75993
      H   77    0.22454      0.00000     0.77367    0.00179     0.77546
      H   78    0.21731      0.00000     0.78107    0.00162     0.78269
      H   79    0.21880      0.00000     0.77948    0.00172     0.78120
      H   80    0.21297      0.00000     0.78563    0.00140     0.78703
      H   81    0.22234      0.00000     0.77536    0.00230     0.77766
      H   82    0.22609      0.00000     0.77253    0.00138     0.77391
      H   83    0.22007      0.00000     0.77832    0.00160     0.77993
      H   84    0.22131      0.00000     0.77640    0.00229     0.77869
      H   85    0.23042      0.00000     0.76732    0.00226     0.76958
      H   86    0.21616      0.00000     0.78233    0.00152     0.78384
      H   87    0.22172      0.00000     0.77673    0.00155     0.77828
      H   88    0.22514      0.00000     0.77312    0.00174     0.77486
      H   89    0.21892      0.00000     0.77986    0.00122     0.78108
      H   90    0.21852      0.00000     0.77879    0.00268     0.78148
      H   91    0.21949      0.00000     0.77863    0.00188     0.78051
      H   92    0.22394      0.00000     0.77426    0.00180     0.77606
      H   93    0.23672      0.00000     0.76157    0.00171     0.76328
      H   94    0.51253      0.00000     0.48443    0.00304     0.48747
      H   95    0.51897      0.00000     0.47866    0.00237     0.48103
      H   96    0.22688      0.00000     0.76948    0.00364     0.77312
      H   97    0.42086      0.00000     0.57744    0.00171     0.57914
      H   98    0.21883      0.00000     0.77963    0.00154     0.78117
      H   99    0.21833      0.00000     0.78049    0.00118     0.78167
      H  100    0.19311      0.00000     0.80479    0.00210     0.80689
      H  101    0.19770      0.00000     0.80029    0.00201     0.80230
 =======================================================================
   * Total *   -0.00000    129.94641   278.66437    1.38922   410.00000

 Normal termination of Gaussian 16 at Sat Jan  7 11:52:19 2023.
