 Gaussian 16, Revision A.03,

 ----------------------------------------------------------------------
 # PBE1PBE/def2TZVP guess=read empiricaldispersion=GD3BJ scf=maxcycle=9
 99 geom=check pop=nbo
 ----------------------------------------------------------------------

 ----------
 1cyi_III_D
 ----------
 Structure from the checkpoint file:  "1cyi_III_Dn.chk"
 Charge =  1 Multiplicity = 2

 SCF Done:  E(UPBE1PBE) =  -3880.15443578     A.U. after   88 cycles

 Summary of Natural Population Analysis:

                                       Natural Population
                Natural  -----------------------------------------------
    Atom  No    Charge         Core      Valence    Rydberg      Total
 -----------------------------------------------------------------------
      C    1   -0.31652      0.99969     2.31390    0.00293     3.31652
      C    2    0.06222      0.99952     1.92924    0.00901     2.93778
      N    3   -0.24127      0.99967     2.73146    0.01013     3.74127
      C    4   -0.04218      0.99945     2.03335    0.00938     3.04218
      C    5    0.10483      0.99965     1.88463    0.01089     2.89517
      N    6   -0.18852      0.99969     2.66185    0.02698     3.68852
      C    7   -0.30322      0.99971     2.29756    0.00595     3.30322
      C    8   -0.29138      0.99968     2.27949    0.01221     3.29138
      S    9    0.36230      4.99904     2.61371    0.02495     7.63770
      C   10   -0.64504      0.99957     2.61227    0.03320     3.64504
     Fe   11    0.62275      8.99475     3.35513    0.02737    12.37725
      C   12   -0.12418      0.99952     2.11670    0.00796     3.12418
      C   13   -0.10788      0.99955     2.10057    0.00776     3.10788
      C   14   -0.09847      0.99951     2.09042    0.00854     3.09847
      C   15   -0.11593      0.99948     2.10826    0.00820     3.11593
      N   16   -0.20274      0.99965     2.67948    0.02360     3.70274
      C   17    0.07656      0.99947     1.91358    0.01040     2.92344
      C   18    0.00344      0.99941     1.98766    0.00949     2.99656
      C   19   -0.01480      0.99937     2.00692    0.00851     3.01480
      C   20    0.08116      0.99945     1.90875    0.01064     2.91884
      C   21   -0.31764      0.99970     2.31435    0.00358     3.31764
      C   22   -0.20778      0.99968     2.20051    0.00758     3.20778
      C   23   -0.24928      0.99963     2.24146    0.00819     3.24928
      C   24    0.38124      0.99977     1.60023    0.01876     2.61876
      O   25   -0.30325      0.99989     3.29080    0.01256     4.30325
      O   26   -0.32460      0.99979     3.31066    0.01415     4.32460
      N   27   -0.22510      0.99969     2.69993    0.02547     3.72510
      C   28    0.07048      0.99949     1.91868    0.01134     2.92952
      C   29   -0.03022      0.99943     2.02199    0.00880     3.03022
      C   30   -0.02023      0.99945     2.00958    0.01120     3.02023
      C   31    0.04263      0.99950     1.94597    0.01190     2.95737
      C   32   -0.31559      0.99970     2.31200    0.00389     3.31559
      C   33   -0.50388      0.99964     2.49270    0.01154     3.50388
      C   34   -0.31523      0.99967     2.30718    0.00838     3.31523
      N   35   -0.19888      0.99967     2.67512    0.02409     3.69888
      C   36    0.06751      0.99955     1.92302    0.00992     2.93249
      C   37    0.07511      0.99939     1.91721    0.00829     2.92489
      C   38   -0.11199      0.99945     2.10249    0.01005     3.11199
      C   39    0.11228      0.99951     1.87746    0.01075     2.88772
      C   40   -0.31897      0.99968     2.31582    0.00346     3.31897
      C   41    0.40189      0.99964     1.59127    0.00720     2.59811
      C   42   -0.35533      0.99972     2.34966    0.00595     3.35533
      N   43   -0.20865      0.99965     2.68515    0.02385     3.70865
      C   44    0.09170      0.99951     1.89815    0.01063     2.90830
      C   45    0.00006      0.99945     1.99207    0.00842     2.99994
      C   46   -0.00758      0.99943     1.99870    0.00945     3.00758
      C   47    0.07825      0.99945     1.91213    0.01017     2.92175
      C   48   -0.32035      0.99969     2.31449    0.00617     3.32035
      C   49   -0.20899      0.99964     2.20251    0.00684     3.20899
      C   50   -0.24671      0.99963     2.23866    0.00842     3.24671
      C   51    0.38156      0.99974     1.60026    0.01845     2.61844
      O   52   -0.34252      0.99979     3.32797    0.01476     4.34252
      O   53   -0.28201      0.99989     3.27028    0.01184     4.28201
      H   54    0.11807      0.00000     0.38148    0.00045     0.38193
      H   55    0.11417      0.00000     0.38520    0.00064     0.38583
      H   56    0.11241      0.00000     0.38696    0.00063     0.38759
      H   57    0.11931      0.00000     0.37980    0.00090     0.38069
      H   58    0.11032      0.00000     0.38895    0.00073     0.38968
      H   59    0.11767      0.00000     0.38184    0.00049     0.38233
      H   60    0.10885      0.00000     0.38982    0.00133     0.39115
      H   61    0.10955      0.00000     0.38970    0.00075     0.39045
      H   62    0.11384      0.00000     0.38498    0.00118     0.38616
      H   63    0.13319      0.00000     0.36580    0.00101     0.36681
      H   64    0.19888      0.00000     0.30061    0.00052     0.30112
      H   65    0.19629      0.00000     0.30219    0.00152     0.30371
      H   66    0.19626      0.00000     0.30269    0.00105     0.30374
      H   67    0.11135      0.00000     0.38707    0.00158     0.38865
      H   68    0.11397      0.00000     0.38457    0.00146     0.38603
      H   69    0.11197      0.00000     0.38637    0.00166     0.38803
      H   70    0.11578      0.00000     0.38301    0.00121     0.38422
      H   71    0.11114      0.00000     0.38818    0.00068     0.38886
      H   72    0.11450      0.00000     0.38478    0.00072     0.38550
      H   73    0.11632      0.00000     0.38299    0.00069     0.38368
      H   74    0.11423      0.00000     0.38497    0.00080     0.38577
      H   75    0.11870      0.00000     0.38030    0.00100     0.38130
      H   76    0.11695      0.00000     0.38227    0.00078     0.38305
      H   77    0.11433      0.00000     0.38482    0.00086     0.38567
      H   78    0.11389      0.00000     0.38535    0.00075     0.38611
      H   79    0.11422      0.00000     0.38503    0.00075     0.38578
      H   80    0.10818      0.00000     0.39116    0.00066     0.39182
      H   81    0.09945      0.00000     0.39947    0.00108     0.40055
      H   82    0.10694      0.00000     0.39237    0.00069     0.39306
      H   83    0.11744      0.00000     0.38188    0.00068     0.38256
      H   84    0.11863      0.00000     0.38071    0.00066     0.38137
      H   85    0.14020      0.00000     0.35939    0.00041     0.35980
      H   86    0.12415      0.00000     0.37540    0.00045     0.37585
      H   87    0.11727      0.00000     0.38214    0.00059     0.38273
      H   88    0.11798      0.00000     0.38133    0.00069     0.38202
      H   89    0.11196      0.00000     0.38761    0.00043     0.38804
      H   90    0.11488      0.00000     0.38387    0.00126     0.38512
      H   91    0.11028      0.00000     0.38880    0.00092     0.38972
      H   92    0.11085      0.00000     0.38827    0.00088     0.38915
      H   93    0.11849      0.00000     0.38066    0.00085     0.38151
      H   94    0.26016      0.00000     0.23851    0.00133     0.23984
      H   95    0.26223      0.00000     0.23667    0.00110     0.23777
      H   96    0.08015      0.00000     0.41815    0.00170     0.41985
      H   97    0.21694      0.00000     0.28231    0.00075     0.28306
      H   98    0.11252      0.00000     0.38688    0.00059     0.38748
      H   99    0.11114      0.00000     0.38831    0.00055     0.38886
      H  100    0.08179      0.00000     0.41733    0.00088     0.41821
      H  101    0.11314      0.00000     0.38593    0.00093     0.38686
 =======================================================================
   * Total *    1.00000     64.97334   138.35031    0.67635   204.00000

 Normal termination of Gaussian 16 at Wed Mar 29 15:17:39 2023.
 Gaussian 16:  ES64L-G16RevA.03 25-Dec-2016

 ----------------------------------------------------------------------
 # PBE1PBE/def2TZVP empiricaldispersion=GD3BJ int=(grid=ultrafine) geom
 =check guess=read scrf=(smd,solvent=Chloroform)
 ----------------------------------------------------------------------

 ---------------
 1cyi_III_D_solv
 ---------------
 Structure from the checkpoint file:  "1cyi_III_Dn.chk"
 Charge =  1 Multiplicity = 2

                         Standard orientation:
 ---------------------------------------------------------------------
 Center     Atomic      Atomic             Coordinates (Angstroms)
 Number     Number       Type             X           Y           Z
 ---------------------------------------------------------------------
      1          6           0        2.941753   -2.017817    4.609241
      2          6           0        1.884142   -1.316219    3.762055
      3          7           0        0.636412   -0.900877    4.108486
      4          6           0        2.067689   -1.128262    2.426675
      5          6           0        0.067600   -0.498718    2.963366
      6          7           0        0.878710   -0.570339    1.950658
      7          6           0       -0.664884    2.911386   -2.722830
      8          6           0        0.386119    1.884299   -3.098036
      9         16           0        0.333944    0.313387   -2.320729
     10          6           0        1.379786   -0.633353   -3.573512
     11         26           0        0.703926   -0.048035   -0.091780
     12          6           0       -2.671478   -0.294585   -0.040042
     13          6           0        1.023665   -3.442275   -0.829414
     14          6           0        4.107684    0.282866   -0.452566
     15          6           0        0.600945    3.190967    1.063833
     16          7           0       -0.580202   -1.533922   -0.291471
     17          6           0       -1.932311   -1.493578   -0.186456
     18          6           0       -2.462843   -2.758176   -0.413169
     19          6           0       -1.457128   -3.615151   -0.747915
     20          6           0       -0.291634   -2.871440   -0.649131
     21          6           0       -1.461695   -5.065156   -1.186274
     22          6           0       -3.947515   -3.054342   -0.279608
     23          6           0       -4.330988   -3.115006    1.187378
     24          6           0       -5.827165   -3.212755    1.388850
     25          8           0       -6.585992   -2.925611    0.455847
     26          8           0       -6.261313   -3.553635    2.493432
     27          7           0        2.258112   -1.274995   -0.634441
     28          6           0        2.210565   -2.645571   -0.838794
     29          6           0        3.503230   -3.153351   -1.067901
     30          6           0        4.417426   -2.121373   -1.023998
     31          6           0        3.595542   -0.967732   -0.782210
     32          6           0        3.715309   -4.679697   -1.219337
     33          6           0        5.836710   -2.140147   -1.163470
     34          6           0        6.413780   -2.250440   -2.419199
     35          7           0        2.047379    1.490460    0.195295
     36          6           0        3.430275    1.430181    0.035720
     37          6           0        4.138017    2.635859    0.527466
     38          6           0        3.088230    3.414536    0.915513
     39          6           0        1.850826    2.712343    0.733234
     40          6           0        5.640438    2.835685    0.894712
     41          6           0        3.234961    4.652823    1.548784
     42          6           0        3.775723    5.839114    0.845934
     43          7           0       -0.686896    1.186443    0.343650
     44          6           0       -0.587988    2.517034    0.803619
     45          6           0       -1.903459    3.149209    0.758678
     46          6           0       -2.740363    2.155125    0.335414
     47          6           0       -2.053832    0.966135    0.138617
     48          6           0       -2.166121    4.607620    1.063835
     49          6           0       -4.199202    2.166281    0.121882
     50          6           0       -4.465445    2.773033   -1.232802
     51          6           0       -5.908176    3.117865   -1.389408
     52          8           0       -6.718485    2.170506   -1.421098
     53          8           0       -6.238600    4.321632   -1.429918
     54          1           0        3.638418   -2.516954    3.968601
     55          1           0        3.459301   -1.294737    5.204388
     56          1           0        2.469142   -2.733723    5.248785
     57          1           0        2.943638   -1.360381    1.857698
     58          1           0       -0.943528   -0.156243    2.891037
     59          1           0       -0.842546    3.560230   -3.554899
     60          1           0       -1.573785    2.411856   -2.459640
     61          1           0       -0.319797    3.486674   -1.889249
     62          1           0        1.313935    2.314627   -2.783591
     63          1           0        0.213990    1.682631   -4.134666
     64          1           0        2.081122   -1.432522   -3.453692
     65          1           0        2.154325   -0.115581   -3.047297
     66          1           0        0.713451   -1.413366   -3.269413
     67          1           0       -3.740041   -0.343821   -0.065520
     68          1           0        1.112441   -4.500468   -0.960743
     69          1           0        5.163262    0.395878   -0.586293
     70          1           0        0.541495    4.141422    1.551685
     71          1           0       -0.604248   -5.255742   -1.797307
     72          1           0       -1.433268   -5.698450   -0.324282
     73          1           0       -2.350795   -5.265489   -1.746870
     74          1           0       -4.102498   -4.034964   -0.678682
     75          1           0       -4.466772   -2.217933   -0.698765
     76          1           0       -4.034163   -2.178575    1.611515
     77          1           0       -3.919618   -4.027741    1.564989
     78          1           0        4.551901   -4.861607   -1.861149
     79          1           0        3.902779   -5.110839   -0.258154
     80          1           0        2.837799   -5.121382   -1.643352
     81          1           0        5.770301   -1.803483   -3.147940
     82          1           0        7.359019   -1.749030   -2.422628
     83          1           0        5.928315    3.844212    0.682817
     84          1           0        5.782723    2.635472    1.936139
     85          1           0        2.969082    6.476870    0.550134
     86          1           0        4.431292    6.373771    1.501123
     87          1           0       -3.086161    4.699244    1.602381
     88          1           0       -2.232552    5.157252    0.148198
     89          1           0       -1.365409    4.997780    1.656740
     90          1           0       -4.618953    2.827515    0.850908
     91          1           0       -4.518693    1.146032    0.078080
     92          1           0       -4.256287    2.009932   -1.953101
     93          1           0       -3.927925    3.697770   -1.261666
     94          1           0       -7.059639   -4.083502    2.552732
     95          1           0       -7.206449    1.982976   -2.226283
     96          1           0        6.557402   -3.283932   -2.656197
     97          1           0        0.230130   -0.896444    5.022223
     98          1           0        4.317458    5.523712   -0.021214
     99          1           0        6.241106    2.164475    0.317153
    100          1           0        2.947017    4.746304    2.575064
    101          1           0        6.458496   -2.068833   -0.295601
 ---------------------------------------------------------------------

 SCF Done:  E(UPBE1PBE) =  -3880.25844544     A.U. after   38 cycles

 Alpha virt. eigenvalues --    1.02486   1.02782   1.03027   1.03397   1.03890
 Alpha virt. eigenvalues --    1.03959   1.04291   1.04393   1.04812   1.05037
 Alpha virt. eigenvalues --    1.05354   1.05527   1.05664   1.06009   1.06191

  Beta  occ. eigenvalues -- -256.43204 -89.10038 -30.19579 -26.02594 -26.02389
  Beta  occ. eigenvalues --  -26.01801 -19.27093 -19.26111 -19.19370 -19.18817
  Beta  occ. eigenvalues --  -14.46720 -14.42775 -14.41964 -14.41524 -14.41328
  Beta  occ. eigenvalues --  -14.41091 -10.36075 -10.36051 -10.30546 -10.28884
  Beta  occ. eigenvalues --  -10.28713 -10.28101 -10.28085 -10.28058 -10.27965
  Beta  occ. eigenvalues --  -10.27930 -10.27767 -10.27468 -10.26566 -10.26122
  Beta  occ. eigenvalues --  -10.25830 -10.25758 -10.25497 -10.25473 -10.25316
  Beta  occ. eigenvalues --  -10.24917 -10.24858 -10.24753 -10.24345 -10.24231
  Beta  occ. eigenvalues --  -10.24138 -10.24116 -10.23964 -10.23732 -10.23687
  Beta  occ. eigenvalues --  -10.23471 -10.23369 -10.23322 -10.23295 -10.23200
  Beta  occ. eigenvalues --  -10.22762 -10.22676 -10.22620 -10.22612 -10.22531
  Beta  occ. eigenvalues --  -10.21729 -10.21047  -8.07547  -6.01306  -6.00874
  Beta  occ. eigenvalues --   -6.00358  -3.51948  -2.27334  -2.27086  -2.26732
  Beta  occ. eigenvalues --   -1.18776  -1.17503  -1.08759  -1.04316  -1.04025
  Beta  occ. eigenvalues --   -1.01533  -1.00822  -1.00322  -0.99436  -0.93955
  Beta  occ. eigenvalues --   -0.89593  -0.87274  -0.86643  -0.85941  -0.85770
  Beta  occ. eigenvalues --   -0.85106  -0.83911  -0.83663  -0.82390  -0.81677
  Beta  occ. eigenvalues --   -0.81605  -0.80845  -0.80414  -0.78308  -0.77988
  Beta  occ. eigenvalues --   -0.76812  -0.75132  -0.74374  -0.73958  -0.73535
  Beta  occ. eigenvalues --   -0.72841  -0.72057  -0.71845  -0.70783  -0.68873
  Beta  occ. eigenvalues --   -0.68564  -0.66913  -0.66705  -0.66095  -0.65106
  Beta  occ. eigenvalues --   -0.64665  -0.64372  -0.63277  -0.61873  -0.60916
  Beta  occ. eigenvalues --   -0.59124  -0.58299  -0.57542  -0.57348  -0.55872
  Beta  occ. eigenvalues --   -0.55429  -0.54658  -0.54260  -0.53476  -0.53373
  Beta  occ. eigenvalues --   -0.53060  -0.52863  -0.52392  -0.52129  -0.51783
  Beta  occ. eigenvalues --   -0.51579  -0.51361  -0.51146  -0.50506  -0.50193
  Beta  occ. eigenvalues --   -0.49802  -0.49413  -0.49223  -0.48796  -0.47775
  Beta  occ. eigenvalues --   -0.47610  -0.47345  -0.47250  -0.46985  -0.46480
  Beta  occ. eigenvalues --   -0.46390  -0.45966  -0.45891  -0.45749  -0.45338
  Beta  occ. eigenvalues --   -0.45206  -0.44635  -0.44312  -0.44074  -0.43977
  Beta  occ. eigenvalues --   -0.43724  -0.43599  -0.43562  -0.43211  -0.43023
  Beta  occ. eigenvalues --   -0.42924  -0.42672  -0.42632  -0.42116  -0.41729
  Beta  occ. eigenvalues --   -0.41633  -0.41589  -0.41429  -0.41086  -0.40829
  Beta  occ. eigenvalues --   -0.40516  -0.40289  -0.40081  -0.39993  -0.39829
  Beta  occ. eigenvalues --   -0.39642  -0.39454  -0.39373  -0.38961  -0.38265
  Beta  occ. eigenvalues --   -0.38019  -0.37826  -0.37132  -0.36802  -0.36605
  Beta  occ. eigenvalues --   -0.36220  -0.36113  -0.35857  -0.35322  -0.35122
  Beta  occ. eigenvalues --   -0.34225  -0.34093  -0.34020  -0.31640  -0.31061
  Beta  occ. eigenvalues --   -0.30638  -0.30437  -0.29368  -0.29228  -0.29127
  Beta  occ. eigenvalues --   -0.27310  -0.26900  -0.26770  -0.26239  -0.25248
  Beta  occ. eigenvalues --   -0.24867  -0.22544  -0.22327  -0.21640
  Beta virt. eigenvalues --   -0.12258  -0.10935  -0.09159  -0.07906  -0.06420
  Beta virt. eigenvalues --   -0.06127  -0.03694  -0.03162  -0.01741  -0.00266
  Beta virt. eigenvalues --    0.00111   0.00759   0.01494   0.01963   0.02441

 Mulliken charges and spin densities:
               1          2
     1  C   -0.397975  -0.000210
     2  C    0.132092  -0.000519
     3  N   -0.196703  -0.000548
     4  C   -0.230837   0.002388
     5  C    0.015781   0.002501
     6  N   -0.011945  -0.033705
     7  C   -0.388139  -0.000328
     8  C   -0.150641  -0.000391
     9  S    0.081292  -0.039786
    10  C   -0.698028  -0.020457
    11  Fe  -0.411399   1.165095
    12  C   -0.430758  -0.031673
    13  C   -0.516432   0.001954
    14  C   -0.483930   0.020755
    15  C   -0.534883   0.010979
    16  N    0.094044  -0.040169
    17  C    0.183519   0.015909
    18  C    0.024481   0.013931
    19  C   -0.071152   0.000650
    20  C    0.191213   0.008081
    21  C   -0.430881  -0.000854
    22  C   -0.247688  -0.001450
    23  C   -0.191709   0.000743
    24  C    0.258586   0.000149
    25  O   -0.415916   0.000030
    26  O   -0.333907   0.000010
    27  N   -0.012863  -0.026225
    28  C    0.242316   0.007249
    29  C   -0.074726  -0.055357
    30  C    0.073546   0.114516
    31  C    0.107352  -0.047249
    32  C   -0.407325   0.000273
    33  C   -0.284027  -0.991805
    34  C   -0.353317   0.065165
    35  N   -0.002685  -0.014590
    36  C    0.361284  -0.026505
    37  C   -0.203422   0.142290
    38  C    0.126233  -0.137788
    39  C    0.179308   0.031822
    40  C   -0.372906  -0.008392
    41  C   -0.282271   0.962400
    42  C   -0.348752  -0.062463
    43  N    0.121527  -0.040819
    44  C    0.241111   0.008328
    45  C   -0.082619   0.006721
    46  C    0.121231   0.010849
    47  C    0.083505   0.016908
    48  C   -0.413581  -0.001101
    49  C   -0.263751  -0.001537
    50  C   -0.147097   0.000954
    51  C    0.285525   0.000193
    52  O   -0.365153   0.000018
    53  O   -0.401250   0.000082
    54  H    0.162609  -0.000005
    55  H    0.156333  -0.000038
    56  H    0.149256   0.000007
    57  H    0.187223  -0.000450
    58  H    0.187789  -0.000275
    59  H    0.166588  -0.000184
    60  H    0.124421   0.000138
    61  H    0.139043  -0.000020
    62  H    0.148089  -0.000124
    63  H    0.177400  -0.002066
    64  H    0.278240   0.002977
    65  H    0.264856  -0.002059
    66  H    0.267285   0.001694
    67  H    0.169994   0.001244
    68  H    0.174648  -0.000124
    69  H    0.165335  -0.002712
    70  H    0.156183   0.004089
    71  H    0.147290  -0.000017
    72  H    0.160885   0.000189
    73  H    0.162210  -0.000063
    74  H    0.128703   0.000022
    75  H    0.126402   0.000390
    76  H    0.147328   0.000020
    77  H    0.145389   0.000000
    78  H    0.153488   0.000653
    79  H    0.159942  -0.001620
    80  H    0.144732  -0.000101
    81  H    0.137660  -0.020022
    82  H    0.142412  -0.017267
    83  H    0.159567   0.001376
    84  H    0.159469   0.006526
    85  H    0.151498   0.049890
    86  H    0.141994   0.019821
    87  H    0.157374   0.000058
    88  H    0.163692   0.000463
    89  H    0.152265   0.000078
    90  H    0.128027   0.000491
    91  H    0.112174   0.000079
    92  H    0.129127  -0.000037
    93  H    0.122397  -0.000050
    94  H    0.385729   0.000029
    95  H    0.393572  -0.000002
    96  H    0.147438  -0.078798
    97  H    0.292152  -0.000125
    98  H    0.144047   0.006479
    99  H    0.150485  -0.000337
   100  H    0.152553  -0.046885
   101  H    0.159430   0.049647
 Sum of Mulliken charges =   1.00000   1.00000

 Dipole moment (field-independent basis, Debye):
    X=              7.2642    Y=             -5.6025    Z=              6.8542  Tot=             11.4515
 Quadrupole moment (field-independent basis, Debye-Ang):
   XX=           -271.6979   YY=           -269.1614   ZZ=           -269.9320
   XY=             29.8716   XZ=             -4.6196   YZ=             -5.3484

 Normal termination of Gaussian 16 at Thu Mar 30 09:43:28 2023.
