 Gaussian 16, Revision A.03,
 Gaussian 16:  ES64L-G16RevA.03 25-Dec-2016

 ----------------------------------------------------------------------
 # PBE1PBE/def2TZVP empiricaldispersion=GD3BJ scf=maxcycle=999 geom=che
 ck pop=nbo
 ----------------------------------------------------------------------

 -----------
 1h9xc_III_D
 -----------
 Structure from the checkpoint file:  "1h9xc_III_D.chk"
 Charge =  1 Multiplicity = 2

                         Standard orientation:
 ---------------------------------------------------------------------
 Center     Atomic      Atomic             Coordinates (Angstroms)
 Number     Number       Type             X           Y           Z
 ---------------------------------------------------------------------
      1          6           0        2.452058   -1.025755    5.162792
      2          6           0        1.651891   -0.747677    3.922044
      3          7           0        0.287472   -0.647492    3.938764
      4          6           0        2.053335   -0.557297    2.631070
      5          6           0       -0.142303   -0.420604    2.704951
      6          7           0        0.895433   -0.353022    1.893339
      7          6           0       -1.120115    2.256990   -2.849099
      8          6           0       -0.679046    0.827008   -3.006187
      9         16           0        0.902632    0.346249   -2.272776
     10          6           0        1.028229   -1.247212   -3.112209
     11         26           0        0.905995   -0.028162   -0.102785
     12          6           0       -2.555194   -0.237735   -0.066721
     13          6           0        1.086365   -3.392107   -0.438190
     14          6           0        4.341598    0.213047   -0.352527
     15          6           0        0.736012    3.291606    0.606570
     16          7           0       -0.459664   -1.528184   -0.231341
     17          6           0       -1.834547   -1.395853   -0.230853
     18          6           0       -2.414215   -2.704771   -0.476950
     19          6           0       -1.434013   -3.585160   -0.574254
     20          6           0       -0.181638   -2.856354   -0.385035
     21          6           0       -1.497299   -5.113436   -0.811885
     22          6           0       -3.955139   -2.924531   -0.561216
     23          6           0       -4.549534   -3.178120    0.847475
     24          6           0       -6.053472   -3.106719    0.932687
     25          8           0       -6.586405   -3.449749    2.019128
     26          8           0       -6.693297   -2.702060   -0.057804
     27          7           0        2.383633   -1.315745   -0.322869
     28          6           0        2.278889   -2.698120   -0.437836
     29          6           0        3.586049   -3.274901   -0.588205
     30          6           0        4.466710   -2.273378   -0.584226
     31          6           0        3.754952   -1.041904   -0.425214
     32          6           0        3.858985   -4.795998   -0.728660
     33          6           0        6.024239   -2.449625   -0.721721
     34          6           0        6.581937   -2.815249   -1.954284
     35          7           0        2.262186    1.460362    0.079747
     36          6           0        3.635625    1.366373   -0.077661
     37          6           0        4.222408    2.672233    0.140906
     38          6           0        3.226885    3.520363    0.383575
     39          6           0        1.987112    2.772465    0.388451
     40          6           0        5.745513    2.969719    0.076905
     41          6           0        3.398795    5.041595    0.760275
     42          6           0        3.992626    5.892584   -0.111362
     43          7           0       -0.583712    1.226473    0.196148
     44          6           0       -0.451957    2.597621    0.501518
     45          6           0       -1.746246    3.176906    0.652968
     46          6           0       -2.641485    2.207424    0.478892
     47          6           0       -1.943602    0.989472    0.172102
     48          6           0       -2.026241    4.674407    0.973821
     49          6           0       -4.206384    2.349507    0.532670
     50          6           0       -4.720322    2.587285   -0.905065
     51          6           0       -6.172405    2.907730   -1.098575
     52          8           0       -6.585478    2.911998   -2.289814
     53          8           0       -6.882843    3.168567   -0.096734
     54          1           0        1.954399   -1.297283   -3.645691
     55          1           0        0.989969   -2.035158   -2.389314
     56          1           0        0.214756   -1.353575   -3.799122
     57          1           0       -1.222541    2.706755   -3.814562
     58          1           0       -2.060999    2.286195   -2.340390
     59          1           0       -0.390456    2.794899   -2.280635
     60          1           0       -1.437646    0.204114   -2.580241
     61          1           0       -0.629359    0.615307   -4.053857
     62          1           0        3.444890   -0.646331    5.039411
     63          1           0        1.988993   -0.547483    6.000483
     64          1           0        2.492186   -2.081502    5.332165
     65          1           0        3.057796   -0.564171    2.262409
     66          1           0       -0.291605   -0.731686    4.749678
     67          1           0       -1.166164   -0.310117    2.414434
     68          1           0       -6.403641   -4.315690    2.391075
     69          1           0       -4.240981   -4.150003    1.171727
     70          1           0       -4.140698   -2.452826    1.519563
     71          1           0       -4.156960   -3.769300   -1.186144
     72          1           0       -4.412413   -2.055096   -0.985345
     73          1           0       -3.622772   -0.280678   -0.124449
     74          1           0       -4.472307    3.179819    1.152965
     75          1           0       -4.636936    1.452451    0.926135
     76          1           0       -4.153405    3.393591   -1.321449
     77          1           0       -4.505105    1.707391   -1.474599
     78          1           0       -7.213034    4.059772    0.038648
     79          1           0       -0.617376   -5.430298   -1.331726
     80          1           0       -1.556781   -5.618600    0.129481
     81          1           0       -2.361485   -5.347821   -1.397672
     82          1           0       -2.076440    5.231293    0.061539
     83          1           0       -2.956680    4.759514    1.495300
     84          1           0       -1.238037    5.061608    1.585138
     85          1           0        0.676354    4.323843    0.881941
     86          1           0        1.153551   -4.458984   -0.484655
     87          1           0        4.793373   -4.946090   -1.227951
     88          1           0        3.897981   -5.242569    0.242913
     89          1           0        3.073802   -5.248190   -1.297789
     90          1           0        5.395847    0.290723   -0.518131
     91          1           0        5.977349    3.444786   -0.853398
     92          1           0        6.016871    3.616434    0.885004
     93          1           0        6.291584    2.052874    0.155019
     94          1           0        3.046608    5.402133    1.704138
     95          1           0        3.655953    5.678570   -1.104211
     96          1           0        3.736258    6.899837    0.142835
     97          1           0        5.054525    5.771242   -0.060912
     98          1           0        6.657571   -2.290315    0.125870
     99          1           0        5.811351   -3.182147   -2.599639
    100          1           0        7.046490   -1.962017   -2.402711
    101          1           0        7.313785   -3.580745   -1.801593
 ---------------------------------------------------------------------

 SCF Done:  E(UPBE1PBE) =  -3880.33263498     A.U. after   76 cycles

 Alpha virt. eigenvalues --    0.96329   0.96564   0.96830   0.97075   0.97377
 Alpha virt. eigenvalues --    0.97548   0.97893   0.98071   0.98232   0.98367
 Alpha virt. eigenvalues --    0.98825   0.98949   0.99319   0.99563   0.99834

  Beta  occ. eigenvalues -- -256.42958 -89.11528 -30.19816 -26.02629 -26.02470
  Beta  occ. eigenvalues --  -26.02116 -19.32715 -19.31907 -19.24912 -19.24015
  Beta  occ. eigenvalues --  -14.53492 -14.48335 -14.48301 -14.47264 -14.47066
  Beta  occ. eigenvalues --  -14.46932 -10.42111 -10.41590 -10.39430 -10.36931
  Beta  occ. eigenvalues --  -10.35875 -10.35222 -10.34876 -10.34733 -10.34655
  Beta  occ. eigenvalues --  -10.34558 -10.34504 -10.34448 -10.34412 -10.34374
  Beta  occ. eigenvalues --  -10.33410 -10.32782 -10.32482 -10.32001 -10.31694
  Beta  occ. eigenvalues --  -10.31668 -10.31542 -10.31473 -10.31309 -10.31276
  Beta  occ. eigenvalues --  -10.31192 -10.31149 -10.31134 -10.31114 -10.31030
  Beta  occ. eigenvalues --  -10.30949 -10.30904 -10.30823 -10.30809 -10.30777
  Beta  occ. eigenvalues --  -10.30477 -10.29870 -10.29840 -10.29831 -10.29782
  Beta  occ. eigenvalues --  -10.28017 -10.27728  -8.09346  -6.02976  -6.02711
  Beta  occ. eigenvalues --   -6.02201  -3.53541  -2.29221  -2.28921  -2.28681
  Beta  occ. eigenvalues --   -1.23208  -1.22506  -1.15377  -1.09788  -1.08186
  Beta  occ. eigenvalues --   -1.07942  -1.06887  -1.06619  -1.05626  -0.99900
  Beta  occ. eigenvalues --   -0.95051  -0.93559  -0.92604  -0.91571  -0.91513
  Beta  occ. eigenvalues --   -0.91450  -0.90888  -0.90378  -0.89746  -0.89710
  Beta  occ. eigenvalues --   -0.87566  -0.86996  -0.86801  -0.85615  -0.85062
  Beta  occ. eigenvalues --   -0.83833  -0.81703  -0.81140  -0.80905  -0.80558
  Beta  occ. eigenvalues --   -0.78809  -0.77246  -0.77019  -0.75809  -0.75514
  Beta  occ. eigenvalues --   -0.75364  -0.74199  -0.73580  -0.73216  -0.72951
  Beta  occ. eigenvalues --   -0.71277  -0.69562  -0.69358  -0.69062  -0.67677
  Beta  occ. eigenvalues --   -0.65999  -0.65468  -0.64706  -0.64056  -0.63448
  Beta  occ. eigenvalues --   -0.62169  -0.61467  -0.61327  -0.60485  -0.59965
  Beta  occ. eigenvalues --   -0.59252  -0.58547  -0.58189  -0.57949  -0.57347
  Beta  occ. eigenvalues --   -0.56982  -0.56841  -0.56736  -0.56595  -0.56308
  Beta  occ. eigenvalues --   -0.55898  -0.55258  -0.55125  -0.54631  -0.54392
  Beta  occ. eigenvalues --   -0.54205  -0.53805  -0.53719  -0.53567  -0.53265
  Beta  occ. eigenvalues --   -0.53124  -0.52864  -0.52690  -0.52469  -0.52432
  Beta  occ. eigenvalues --   -0.52223  -0.52043  -0.51767  -0.51558  -0.51363
  Beta  occ. eigenvalues --   -0.51222  -0.51122  -0.50734  -0.50550  -0.50237
  Beta  occ. eigenvalues --   -0.49967  -0.49695  -0.49451  -0.49093  -0.48997
  Beta  occ. eigenvalues --   -0.48856  -0.48297  -0.47954  -0.47843  -0.47415
  Beta  occ. eigenvalues --   -0.47306  -0.46831  -0.46577  -0.46234  -0.46133
  Beta  occ. eigenvalues --   -0.45988  -0.45708  -0.45174  -0.45027  -0.44583
  Beta  occ. eigenvalues --   -0.44295  -0.43815  -0.43506  -0.42743  -0.42625
  Beta  occ. eigenvalues --   -0.42342  -0.42135  -0.41936  -0.41487  -0.41278
  Beta  occ. eigenvalues --   -0.40593  -0.39997  -0.39188  -0.38871  -0.38427
  Beta  occ. eigenvalues --   -0.38221  -0.36229  -0.35892  -0.34801  -0.34724
  Beta  occ. eigenvalues --   -0.33926  -0.33631  -0.32936  -0.32534  -0.31329
  Beta  occ. eigenvalues --   -0.29654  -0.29230  -0.28622  -0.26412
  Beta virt. eigenvalues --   -0.22479  -0.17043  -0.16383  -0.13038  -0.09972
  Beta virt. eigenvalues --   -0.07818  -0.07737  -0.07399  -0.06691  -0.06014
  Beta virt. eigenvalues --   -0.05598  -0.05376  -0.05159  -0.04839  -0.04628

 Mulliken charges and spin densities:
               1          2
     1  C   -0.374287  -0.000136
     2  C    0.161269   0.000720
     3  N   -0.214264  -0.000467
     4  C   -0.216326  -0.000662
     5  C    0.012212  -0.001343
     6  N    0.047521  -0.002317
     7  C   -0.335398   0.000430
     8  C   -0.201233  -0.002642
     9  S    0.072030  -0.008417
    10  C   -0.332100   0.000187
    11  Fe  -0.496927   0.304741
    12  C   -0.642756   0.015922
    13  C   -0.521893   0.032058
    14  C   -0.488192   0.049096
    15  C   -0.549075   0.057558
    16  N    0.052717   0.013531
    17  C    0.297442  -0.055604
    18  C   -0.009739  -0.005030
    19  C   -0.058879  -0.003281
    20  C    0.225964  -0.059234
    21  C   -0.392199   0.000257
    22  C   -0.291742   0.001341
    23  C   -0.296898  -0.000911
    24  C    0.327380  -0.000116
    25  O   -0.324653  -0.000075
    26  O   -0.334108  -0.000070
    27  N    0.066889   0.048451
    28  C    0.211119  -0.079139
    29  C   -0.015710   0.095725
    30  C   -0.025537  -0.044361
    31  C    0.198151  -0.081874
    32  C   -0.371509  -0.004913
    33  C   -0.185080   0.125772
    34  C   -0.328265  -0.011061
    35  N    0.073097   0.035602
    36  C    0.298470  -0.096616
    37  C   -0.066084   0.106889
    38  C   -0.004525  -0.134913
    39  C    0.274372  -0.081961
    40  C   -0.403362  -0.006965
    41  C   -0.257464   0.893341
    42  C   -0.312611  -0.068548
    43  N    0.115649   0.029701
    44  C    0.305890  -0.087928
    45  C   -0.040919   0.010962
    46  C    0.040172  -0.020220
    47  C    0.147497  -0.054651
    48  C   -0.399853  -0.000596
    49  C   -0.248001   0.002594
    50  C   -0.253757  -0.001272
    51  C    0.300163  -0.000182
    52  O   -0.337106  -0.000446
    53  O   -0.352585  -0.000009
    54  H    0.146813   0.000121
    55  H    0.149372  -0.000288
    56  H    0.155560  -0.000218
    57  H    0.142531   0.000064
    58  H    0.098126  -0.000042
    59  H    0.135286   0.000008
    60  H    0.143887   0.000114
    61  H    0.153815  -0.000725
    62  H    0.149281   0.000004
    63  H    0.136119   0.000024
    64  H    0.151932   0.000033
    65  H    0.154473   0.000120
    66  H    0.242659  -0.000005
    67  H    0.179122   0.000150
    68  H    0.351016   0.000002
    69  H    0.128608  -0.000009
    70  H    0.139598   0.000067
    71  H    0.133674  -0.000063
    72  H    0.152788  -0.000262
    73  H    0.148080  -0.000602
    74  H    0.109473  -0.000180
    75  H    0.129221  -0.000559
    76  H    0.145673  -0.000002
    77  H    0.140543   0.000079
    78  H    0.361498  -0.000015
    79  H    0.133790  -0.000066
    80  H    0.148324  -0.000519
    81  H    0.148482  -0.000127
    82  H    0.158635   0.000006
    83  H    0.137594   0.000060
    84  H    0.138489   0.000143
    85  H    0.121706   0.003164
    86  H    0.123553  -0.001306
    87  H    0.139981   0.000041
    88  H    0.160595   0.003950
    89  H    0.145001   0.000502
    90  H    0.122139  -0.002088
    91  H    0.161560   0.002427
    92  H    0.155176   0.003841
    93  H    0.121824   0.000246
    94  H    0.147186  -0.044684
    95  H    0.144502   0.033772
    96  H    0.138375   0.007443
    97  H    0.143582   0.079265
    98  H    0.178610  -0.005490
    99  H    0.160144   0.000439
   100  H    0.184803   0.007976
   101  H    0.161835   0.004272
 Sum of Mulliken charges =   1.00000   1.00000

 Dipole moment (field-independent basis, Debye):
    X=             12.4692    Y=             -3.4539    Z=              6.8227  Tot=             14.6273
 Quadrupole moment (field-independent basis, Debye-Ang):
   XX=           -251.6107   YY=           -223.5386   ZZ=           -280.1419
   XY=            -15.7398   XZ=            -41.6495   YZ=              4.0815

 Summary of Natural Population Analysis:

                                       Natural Population
                Natural  -----------------------------------------------
    Atom  No    Charge         Core      Valence    Rydberg      Total
 -----------------------------------------------------------------------
      C    1   -0.32016      0.99969     2.31732    0.00314     3.32016
      C    2    0.05819      0.99957     1.93290    0.00934     2.94181
      N    3   -0.23993      0.99968     2.73010    0.01015     3.73993
      C    4   -0.03947      0.99945     2.03077    0.00924     3.03947
      C    5    0.09715      0.99966     1.89352    0.00967     2.90285
      N    6   -0.16574      0.99968     2.63955    0.02651     3.66574
      C    7   -0.31150      0.99972     2.30562    0.00616     3.31150
      C    8   -0.26799      0.99963     2.25826    0.01009     3.26799
      S    9    0.31961      4.99903     2.65999    0.02138     7.68039
      C   10   -0.37522      0.99964     2.36644    0.00914     3.37522
     Fe   11    0.06497      8.99514     3.91539    0.02450    12.93503
      C   12   -0.13490      0.99945     2.12642    0.00902     3.13490
      C   13   -0.11363      0.99947     2.10537    0.00879     3.11363
      C   14   -0.10452      0.99947     2.09689    0.00817     3.10452
      C   15   -0.09798      0.99947     2.09024    0.00827     3.09798
      N   16   -0.17768      0.99968     2.65362    0.02439     3.67768
      C   17    0.06467      0.99951     1.92535    0.01046     2.93533
      C   18   -0.01901      0.99933     2.00987    0.00981     3.01901
      C   19   -0.01125      0.99933     2.00343    0.00850     3.01125
      C   20    0.06071      0.99953     1.92888    0.01088     2.93929
      C   21   -0.31781      0.99970     2.31465    0.00347     3.31781
      C   22   -0.20753      0.99968     2.20062    0.00723     3.20753
      C   23   -0.25806      0.99963     2.24995    0.00849     3.25806
      C   24    0.38154      0.99974     1.60163    0.01710     2.61846
      O   25   -0.32955      0.99980     3.31476    0.01499     4.32955
      O   26   -0.27790      0.99989     3.26605    0.01196     4.27790
      N   27   -0.14462      0.99968     2.62316    0.02177     3.64462
      C   28    0.04165      0.99951     1.94813    0.01071     2.95835
      C   29    0.04139      0.99933     1.95040    0.00887     2.95861
      C   30   -0.07940      0.99927     2.06896    0.01116     3.07940
      C   31    0.04354      0.99949     1.94647    0.01049     2.95646
      C   32   -0.31852      0.99970     2.31535    0.00348     3.31852
      C   33    0.10987      0.99966     1.88145    0.00901     2.89013
      C   34   -0.36358      0.99967     2.35582    0.00808     3.36358
      N   35   -0.16095      0.99968     2.63650    0.02477     3.66095
      C   36    0.04509      0.99952     1.94498    0.01041     2.95491
      C   37    0.03139      0.99933     1.96109    0.00818     2.96861
      C   38   -0.09587      0.99932     2.08601    0.01055     3.09587
      C   39    0.06265      0.99951     1.92773    0.01011     2.93735
      C   40   -0.31956      0.99970     2.31629    0.00357     3.31956
      C   41    0.39666      0.99958     1.59613    0.00764     2.60334
      C   42   -0.37403      0.99963     2.36632    0.00807     3.37403
      N   43   -0.16669      0.99968     2.64420    0.02281     3.66669
      C   44    0.04727      0.99949     1.94274    0.01051     2.95273
      C   45   -0.00637      0.99931     1.99811    0.00894     3.00637
      C   46   -0.02523      0.99933     2.01590    0.01000     3.02523
      C   47    0.06467      0.99951     1.92509    0.01073     2.93533
      C   48   -0.31676      0.99970     2.31356    0.00350     3.31676
      C   49   -0.20919      0.99968     2.20321    0.00630     3.20919
      C   50   -0.25583      0.99962     2.24772    0.00850     3.25583
      C   51    0.38158      0.99973     1.60121    0.01748     2.61842
      O   52   -0.27927      0.99990     3.26799    0.01138     4.27927
      O   53   -0.34047      0.99980     3.32641    0.01426     4.34047
      H   54    0.11480      0.00000     0.38476    0.00044     0.38520
      H   55    0.11923      0.00000     0.38005    0.00071     0.38077
      H   56    0.11601      0.00000     0.38332    0.00068     0.38399
      H   57    0.11166      0.00000     0.38782    0.00052     0.38834
      H   58    0.10910      0.00000     0.38977    0.00113     0.39090
      H   59    0.10991      0.00000     0.38921    0.00088     0.39009
      H   60    0.11065      0.00000     0.38824    0.00111     0.38935
      H   61    0.11318      0.00000     0.38615    0.00066     0.38682
      H   62    0.11828      0.00000     0.38124    0.00048     0.38172
      H   63    0.11136      0.00000     0.38800    0.00065     0.38864
      H   64    0.11425      0.00000     0.38509    0.00066     0.38575
      H   65    0.11586      0.00000     0.38336    0.00079     0.38414
      H   66    0.21093      0.00000     0.28823    0.00084     0.28907
      H   67    0.11267      0.00000     0.38630    0.00104     0.38733
      H   68    0.25516      0.00000     0.24372    0.00112     0.24484
      H   69    0.10798      0.00000     0.39120    0.00082     0.39202
      H   70    0.11451      0.00000     0.38481    0.00068     0.38549
      H   71    0.11414      0.00000     0.38514    0.00072     0.38586
      H   72    0.11774      0.00000     0.38147    0.00080     0.38226
      H   73    0.11759      0.00000     0.38107    0.00135     0.38241
      H   74    0.11051      0.00000     0.38864    0.00085     0.38949
      H   75    0.10809      0.00000     0.39094    0.00098     0.39191
      H   76    0.12033      0.00000     0.37904    0.00063     0.37967
      H   77    0.11869      0.00000     0.38066    0.00065     0.38131
      H   78    0.26153      0.00000     0.23728    0.00120     0.23847
      H   79    0.10973      0.00000     0.38962    0.00065     0.39027
      H   80    0.11201      0.00000     0.38726    0.00072     0.38799
      H   81    0.11432      0.00000     0.38496    0.00072     0.38568
      H   82    0.11422      0.00000     0.38508    0.00070     0.38578
      H   83    0.11183      0.00000     0.38742    0.00075     0.38817
      H   84    0.11054      0.00000     0.38883    0.00063     0.38946
      H   85    0.11429      0.00000     0.38452    0.00119     0.38571
      H   86    0.11308      0.00000     0.38564    0.00128     0.38692
      H   87    0.11049      0.00000     0.38881    0.00070     0.38951
      H   88    0.11796      0.00000     0.38137    0.00067     0.38204
      H   89    0.11408      0.00000     0.38529    0.00064     0.38592
      H   90    0.11144      0.00000     0.38731    0.00125     0.38856
      H   91    0.11524      0.00000     0.38408    0.00068     0.38476
      H   92    0.11498      0.00000     0.38434    0.00067     0.38502
      H   93    0.10708      0.00000     0.39230    0.00061     0.39292
      H   94    0.08272      0.00000     0.41650    0.00078     0.41728
      H   95    0.13359      0.00000     0.36581    0.00060     0.36641
      H   96    0.12189      0.00000     0.37760    0.00051     0.37811
      H   97    0.15591      0.00000     0.34347    0.00062     0.34409
      H   98    0.10005      0.00000     0.39906    0.00089     0.39995
      H   99    0.12100      0.00000     0.37828    0.00072     0.37900
      H  100    0.14403      0.00000     0.35513    0.00083     0.35597
      H  101    0.12888      0.00000     0.37037    0.00075     0.37112
 =======================================================================
   * Total *    1.00000     64.97288   138.39703    0.63009   204.00000

 Normal termination of Gaussian 16 at Fri Sep  9 22:58:33 2022.
