 Gaussian 16, Revision A.03,
 Gaussian 16:  ES64L-G16RevA.03 25-Dec-2016

 ----------------------------------------------------------------------
 # PBE1PBE/def2TZVP empiricaldispersion=GD3BJ scf=maxcycle=999 geom=che
 ck pop=nbo
 ----------------------------------------------------------------------

 ----------
 1vb6_III_D
 ----------
 Structure from the checkpoint file:  "1vb6_III_D.chk"
 Charge =  1 Multiplicity = 2

                         Standard orientation:
 ---------------------------------------------------------------------
 Center     Atomic      Atomic             Coordinates (Angstroms)
 Number     Number       Type             X           Y           Z
 ---------------------------------------------------------------------
      1          6           0       -1.455645   -1.216367    5.645066
      2          6           0       -1.437922   -0.507888    4.325486
      3          7           0       -1.724946    0.833824    4.194790
      4          6           0       -1.140542   -0.952647    3.082565
      5          6           0       -1.602520    1.187248    2.928847
      6          7           0       -1.248726    0.122251    2.231468
      7          6           0        1.457369   -0.728434   -4.075599
      8          6           0        1.065548   -0.818595   -2.615159
      9         16           0       -0.356622    0.230336   -2.212341
     10          6           0       -1.624416   -0.593734   -3.174630
     11          6           0        2.524573   -0.267427    0.801395
     12          6           0       -1.235425   -3.278693    0.106440
     13          6           0       -4.167596    0.511484   -0.597025
     14          6           0       -0.440137    3.547876    0.084674
     15          6           0        1.723095   -1.440851    0.685002
     16          6           0        2.260081   -2.790917    0.826210
     17          6           0        1.195074   -3.645858    0.621036
     18          6           0        0.037595   -2.813010    0.362684
     19          6           0        1.243141   -5.188840    0.662571
     20          6           0        3.695233   -3.140826    1.261979
     21          6           0        4.458942   -3.907309    0.192288
     22          6           0        4.646643   -3.122504   -1.086039
     23          8           0        4.221239   -3.628544   -2.126235
     24          8           0        5.205453   -2.003897   -1.036639
     25          6           0       -2.354157   -2.511307   -0.148123
     26          6           0       -3.652821   -3.061896   -0.417421
     27          6           0       -4.542963   -2.015933   -0.619723
     28          6           0       -3.700355   -0.793915   -0.467066
     29          6           0       -3.943238   -4.588176   -0.464904
     30          6           0       -5.945936   -2.155310   -0.911031
     31          6           0       -6.674414   -3.034085   -1.770115
     32          6           0       -3.393321    1.663766   -0.468714
     33          6           0       -3.963675    3.003475   -0.641865
     34          6           0       -2.897215    3.890208   -0.445699
     35          6           0       -1.723900    3.053648   -0.165588
     36          6           0       -5.449107    3.292945   -0.976901
     37          6           0       -2.862187    5.325805   -0.497364
     38          6           0       -3.563148    6.228976   -1.330607
     39          6           0        0.702569    2.784993    0.335242
     40          6           0        2.034863    3.331427    0.568878
     41          6           0        2.862540    2.260355    0.760516
     42          6           0        2.027415    1.058652    0.660890
     43          6           0        2.448569    4.815647    0.576403
     44          6           0        4.372547    2.292659    1.029013
     45          6           0        5.029521    1.947800   -0.314074
     46          6           0        6.490995    2.360453   -0.457022
     47          8           0        7.022937    2.220889   -1.589857
     48          8           0        7.093146    2.815695    0.546526
     49          7           0        0.370227   -1.471399    0.410538
     50          7           0       -2.370852   -1.096552   -0.168459
     51          7           0       -2.041053    1.679360   -0.175407
     52          7           0        0.712286    1.390735    0.393382
     53         26           0       -0.782814    0.122142    0.163453
     54          1           0        6.474175    2.064160   -2.361800
     55          1           0        4.966016    0.889017   -0.454950
     56          1           0        4.470177    2.424508   -1.091752
     57          1           0        4.633603    1.563780    1.767583
     58          1           0        4.671668    3.269113    1.348331
     59          1           0        1.573790    5.429988    0.528998
     60          1           0        2.987461    5.031148    1.475322
     61          1           0        3.071750    5.016503   -0.269885
     62          1           0        3.567100   -0.391843    1.007692
     63          1           0       -0.321977    4.611332    0.084176
     64          1           0       -5.912146    2.401137   -1.344558
     65          1           0       -5.956697    3.620305   -0.093675
     66          1           0       -5.503894    4.057220   -1.723749
     67          1           0       -5.207468    0.640930   -0.813380
     68          1           0       -4.477318   -4.821874   -1.362146
     69          1           0       -3.019355   -5.127701   -0.448976
     70          1           0       -4.532955   -4.865603    0.383723
     71          1           0       -1.368852   -4.340340    0.104869
     72          1           0        0.762726   -5.584207   -0.207939
     73          1           0        2.262454   -5.513429    0.685859
     74          1           0        0.737545   -5.537979    1.538571
     75          1           0        3.651279   -3.737057    2.149378
     76          1           0        4.220968   -2.234648    1.479564
     77          1           0        5.421950   -4.167973    0.579031
     78          1           0        3.924240   -4.806376   -0.032817
     79          1           0        3.285043   -3.583719   -2.333908
     80          1           0       -1.762546    2.169010    2.534596
     81          1           0       -1.985404    1.444514    4.942600
     82          1           0       -0.871774   -1.952557    2.812668
     83          1           0       -2.069933   -2.089488    5.572889
     84          1           0       -0.459114   -1.502273    5.909799
     85          1           0       -1.850550   -0.563446    6.395163
     86          1           0       -2.117507    0.120242   -3.800729
     87          1           0       -1.175027   -1.350971   -3.782529
     88          1           0       -2.337578   -1.042437   -2.515111
     89          1           0        0.634145   -0.347089   -4.642855
     90          1           0        2.296535   -0.072830   -4.179921
     91          1           0        1.718199   -1.701695   -4.435642
     92          1           0        0.821967   -1.834691   -2.384684
     93          1           0        1.898331   -0.517455   -2.014586
     94          1           0       -6.443934   -4.078838   -1.786537
     95          1           0       -7.450505   -2.647511   -2.397127
     96          1           0       -6.565552   -1.464063   -0.378910
     97          1           0       -3.346385    6.269239   -2.377647
     98          1           0       -4.310081    6.871824   -0.913788
     99          1           0       -2.200246    5.785001    0.206819
 ---------------------------------------------------------------------

 SCF Done:  E(UPBE1PBE) =  -3879.13883809     A.U. after   78 cycles

 Alpha virt. eigenvalues --    0.91136   0.91312   0.91783   0.91947   0.92313
 Alpha virt. eigenvalues --    0.92483   0.92674   0.92934   0.93294   0.93421
 Alpha virt. eigenvalues --    0.93896   0.94062   0.94188   0.94595   0.94874

  Beta  occ. eigenvalues -- -256.51532 -89.15287 -30.27896 -26.10867 -26.10821
  Beta  occ. eigenvalues --  -26.10046 -19.33799 -19.33146 -19.26610 -19.23698
  Beta  occ. eigenvalues --  -14.55391 -14.51208 -14.49724 -14.49628 -14.49605
  Beta  occ. eigenvalues --  -14.49605 -10.43586 -10.41568 -10.39144 -10.36842
  Beta  occ. eigenvalues --  -10.36575 -10.36492 -10.36348 -10.36317 -10.36211
  Beta  occ. eigenvalues --  -10.36091 -10.35985 -10.35842 -10.35012 -10.34238
  Beta  occ. eigenvalues --  -10.34044 -10.33846 -10.33672 -10.33600 -10.33394
  Beta  occ. eigenvalues --  -10.33374 -10.33283 -10.33252 -10.33212 -10.32789
  Beta  occ. eigenvalues --  -10.32669 -10.32633 -10.32580 -10.32559 -10.32364
  Beta  occ. eigenvalues --  -10.32143 -10.31973 -10.31910 -10.31349 -10.31294
  Beta  occ. eigenvalues --  -10.31125 -10.30769 -10.30713 -10.30658 -10.30544
  Beta  occ. eigenvalues --  -10.30312 -10.30202  -8.13036  -6.06635  -6.06383
  Beta  occ. eigenvalues --   -6.05969  -3.60247  -2.35819  -2.35353  -2.34793
  Beta  occ. eigenvalues --   -1.25726  -1.22845  -1.17572  -1.11142  -1.08563
  Beta  occ. eigenvalues --   -1.08472  -1.07562  -1.07165  -1.06179  -1.02039
  Beta  occ. eigenvalues --   -0.95827  -0.93931  -0.93215  -0.92477  -0.92365
  Beta  occ. eigenvalues --   -0.91960  -0.91628  -0.91205  -0.90843  -0.88549
  Beta  occ. eigenvalues --   -0.87627  -0.87404  -0.86303  -0.85594  -0.85470
  Beta  occ. eigenvalues --   -0.83246  -0.82722  -0.82012  -0.81183  -0.80888
  Beta  occ. eigenvalues --   -0.79461  -0.79188  -0.78881  -0.77095  -0.76060
  Beta  occ. eigenvalues --   -0.75654  -0.75557  -0.74494  -0.73652  -0.73010
  Beta  occ. eigenvalues --   -0.72032  -0.71661  -0.71309  -0.69278  -0.68336
  Beta  occ. eigenvalues --   -0.67310  -0.65940  -0.64900  -0.64270  -0.63714
  Beta  occ. eigenvalues --   -0.62526  -0.62245  -0.62180  -0.61372  -0.60542
  Beta  occ. eigenvalues --   -0.59822  -0.59706  -0.58923  -0.58763  -0.58560
  Beta  occ. eigenvalues --   -0.58502  -0.58363  -0.58174  -0.57380  -0.56767
  Beta  occ. eigenvalues --   -0.56397  -0.56085  -0.55544  -0.54793  -0.54735
  Beta  occ. eigenvalues --   -0.54475  -0.54142  -0.53999  -0.53775  -0.53667
  Beta  occ. eigenvalues --   -0.53411  -0.53337  -0.53297  -0.53120  -0.52773
  Beta  occ. eigenvalues --   -0.52690  -0.52565  -0.52348  -0.52083  -0.51871
  Beta  occ. eigenvalues --   -0.51831  -0.51699  -0.51519  -0.51284  -0.50929
  Beta  occ. eigenvalues --   -0.50829  -0.50536  -0.50346  -0.50031  -0.49711
  Beta  occ. eigenvalues --   -0.49589  -0.49178  -0.48892  -0.48770  -0.48339
  Beta  occ. eigenvalues --   -0.48256  -0.47921  -0.47680  -0.47374  -0.46932
  Beta  occ. eigenvalues --   -0.46792  -0.46686  -0.46369  -0.46250  -0.45882
  Beta  occ. eigenvalues --   -0.45364  -0.45096  -0.44648  -0.43847  -0.43394
  Beta  occ. eigenvalues --   -0.43131  -0.42957  -0.42739  -0.42557  -0.41832
  Beta  occ. eigenvalues --   -0.41585  -0.40596  -0.38951  -0.38630  -0.38465
  Beta  occ. eigenvalues --   -0.38011  -0.36988  -0.36474  -0.36377  -0.35934
  Beta  occ. eigenvalues --   -0.35150  -0.34784  -0.33885  -0.33212  -0.31491
  Beta  occ. eigenvalues --   -0.29987  -0.29650  -0.27842
  Beta virt. eigenvalues --   -0.20230  -0.18626  -0.16824  -0.15402  -0.15201
  Beta virt. eigenvalues --   -0.13480  -0.11771  -0.10471  -0.10082  -0.08152
  Beta virt. eigenvalues --   -0.07985  -0.06906  -0.06242  -0.05984  -0.05658

 Mulliken charges and spin densities:
               1          2
     1  C   -0.347564  -0.000491
     2  C    0.123505  -0.000231
     3  N   -0.201071   0.001653
     4  C   -0.158538   0.000110
     5  C    0.035997   0.010187
     6  N   -0.013554  -0.044436
     7  C   -0.324142  -0.002113
     8  C   -0.260169   0.005073
     9  S    0.061774  -0.062548
    10  C   -0.372607   0.002643
    11  C   -0.562571  -0.012091
    12  C   -0.531604  -0.011839
    13  C   -0.468794  -0.004624
    14  C   -0.496856  -0.000988
    15  C    0.301147   0.003934
    16  C   -0.108235   0.014928
    17  C   -0.081158  -0.005344
    18  C    0.161874   0.011785
    19  C   -0.377766  -0.000460
    20  C   -0.204717  -0.001131
    21  C   -0.221068   0.000449
    22  C    0.308860   0.000145
    23  O   -0.323245  -0.000005
    24  O   -0.356933  -0.000025
    25  C    0.400529   0.015564
    26  C   -0.071017  -0.028921
    27  C    0.064901   0.045398
    28  C    0.136459  -0.004151
    29  C   -0.375915   0.000815
    30  C   -0.241620  -0.117602
    31  C   -0.268674   0.146170
    32  C    0.354780  -0.000590
    33  C   -0.117543   0.012962
    34  C    0.083549  -0.003045
    35  C    0.204092   0.007871
    36  C   -0.368162  -0.000619
    37  C   -0.232893  -0.007458
    38  C   -0.326528   0.005326
    39  C    0.365822   0.006910
    40  C   -0.095064   0.000168
    41  C   -0.045824   0.018102
    42  C    0.263002   0.003429
    43  C   -0.401355  -0.000637
    44  C   -0.194417  -0.001412
    45  C   -0.352878   0.000972
    46  C    0.325696   0.000222
    47  O   -0.283760   0.000075
    48  O   -0.362253   0.000066
    49  N    0.040633  -0.037557
    50  N   -0.023561  -0.044414
    51  N   -0.034121  -0.033482
    52  N    0.057093  -0.036758
    53  Fe  -0.310816   1.163455
    54  H    0.342835  -0.000005
    55  H    0.180556  -0.000024
    56  H    0.133970  -0.000052
    57  H    0.132668   0.000366
    58  H    0.140376   0.000080
    59  H    0.131124  -0.000032
    60  H    0.159362  -0.000028
    61  H    0.151717   0.000066
    62  H    0.138254   0.000356
    63  H    0.110082  -0.000096
    64  H    0.133514   0.000012
    65  H    0.153967   0.000553
    66  H    0.161274   0.000217
    67  H    0.112376  -0.000289
    68  H    0.135227  -0.000619
    69  H    0.126090  -0.000143
    70  H    0.163770  -0.001042
    71  H    0.117113   0.000461
    72  H    0.143198  -0.000071
    73  H    0.138007  -0.000102
    74  H    0.155179  -0.000058
    75  H    0.142722   0.000459
    76  H    0.129133   0.000018
    77  H    0.147034   0.000097
    78  H    0.102948  -0.000040
    79  H    0.351684   0.000005
    80  H    0.187868  -0.000741
    81  H    0.248677  -0.000359
    82  H    0.160109  -0.000293
    83  H    0.157447   0.000052
    84  H    0.159120   0.000079
    85  H    0.131030  -0.000059
    86  H    0.170971  -0.000927
    87  H    0.166351  -0.000575
    88  H    0.171680  -0.001702
    89  H    0.148144   0.000052
    90  H    0.141068  -0.000038
    91  H    0.125196  -0.000515
    92  H    0.125617  -0.000826
    93  H    0.175521  -0.000154
    94  H    0.150354  -0.008311
    95  H    0.163345  -0.008229
    96  H    0.140095   0.007602
    97  H    0.163213  -0.000493
    98  H    0.167217  -0.000468
    99  H    0.140076   0.000380
 Sum of Mulliken charges =   1.00000   1.00000

 Dipole moment (field-independent basis, Debye):
    X=             -9.8766    Y=             -3.5166    Z=              1.3070  Tot=             10.5651
 Quadrupole moment (field-independent basis, Debye-Ang):
   XX=           -314.0780   YY=           -250.8969   ZZ=           -255.4407
   XY=            -23.3908   XZ=            -14.0956   YZ=             -0.2732

 Summary of Natural Population Analysis:

                                       Natural Population
                Natural  -----------------------------------------------
    Atom  No    Charge         Core      Valence    Rydberg      Total
 -----------------------------------------------------------------------
      C    1   -0.32120      0.99969     2.31833    0.00318     3.32120
      C    2    0.06121      0.99954     1.93031    0.00893     2.93879
      N    3   -0.23196      0.99968     2.72222    0.01006     3.73196
      C    4   -0.03641      0.99943     2.02767    0.00932     3.03641
      C    5    0.10584      0.99966     1.88338    0.01111     2.89416
      N    6   -0.18885      0.99970     2.66443    0.02472     3.68885
      C    7   -0.31211      0.99973     2.30612    0.00626     3.31211
      C    8   -0.26519      0.99965     2.25608    0.00946     3.26519
      S    9    0.26661      4.99943     2.71341    0.02055     7.73339
      C   10   -0.37937      0.99964     2.37109    0.00864     3.37937
      C   11   -0.11950      0.99953     2.11221    0.00776     3.11950
      C   12   -0.12279      0.99947     2.11491    0.00841     3.12279
      C   13   -0.11802      0.99949     2.11020    0.00834     3.11802
      C   14   -0.12281      0.99949     2.11525    0.00806     3.12281
      C   15    0.07734      0.99953     1.91282    0.01031     2.92266
      C   16   -0.00858      0.99945     1.99933    0.00980     3.00858
      C   17   -0.01450      0.99944     2.00691    0.00815     3.01450
      C   18    0.07402      0.99950     1.91590    0.01058     2.92598
      C   19   -0.31998      0.99969     2.31658    0.00371     3.31998
      C   20   -0.20940      0.99965     2.20256    0.00719     3.20940
      C   21   -0.25517      0.99962     2.24720    0.00835     3.25517
      C   22    0.39260      0.99974     1.58976    0.01790     2.60740
      O   23   -0.33790      0.99977     3.32249    0.01564     4.33790
      O   24   -0.29106      0.99989     3.27949    0.01168     4.29106
      C   25    0.07808      0.99948     1.91194    0.01050     2.92192
      C   26   -0.00218      0.99946     1.99459    0.00813     3.00218
      C   27   -0.02885      0.99944     2.01977    0.00964     3.02885
      C   28    0.08634      0.99953     1.90366    0.01046     2.91366
      C   29   -0.31637      0.99969     2.31292    0.00376     3.31637
      C   30   -0.15582      0.99965     2.14693    0.00924     3.15582
      C   31   -0.10507      0.99971     2.09944    0.00593     3.10507
      C   32    0.07151      0.99951     1.91848    0.01049     2.92849
      C   33    0.02324      0.99949     1.96870    0.00858     2.97676
      C   34   -0.05742      0.99947     2.04770    0.01026     3.05742
      C   35    0.09843      0.99954     1.89187    0.01016     2.90157
      C   36   -0.31963      0.99968     2.31604    0.00390     3.31963
      C   37   -0.10583      0.99965     2.09552    0.01066     3.10583
      C   38   -0.17673      0.99971     2.16947    0.00755     3.17673
      C   39    0.09161      0.99952     1.89829    0.01058     2.90839
      C   40   -0.00940      0.99942     2.00200    0.00798     3.00940
      C   41    0.00963      0.99944     1.98194    0.00900     2.99037
      C   42    0.07951      0.99954     1.91104    0.00991     2.92049
      C   43   -0.31757      0.99969     2.31421    0.00367     3.31757
      C   44   -0.21252      0.99967     2.20509    0.00776     3.21252
      C   45   -0.25969      0.99963     2.25151    0.00855     3.25969
      C   46    0.38252      0.99975     1.60101    0.01672     2.61748
      O   47   -0.31041      0.99981     3.29549    0.01510     4.31041
      O   48   -0.29111      0.99990     3.27940    0.01181     4.29111
      N   49   -0.21711      0.99967     2.69296    0.02448     3.71711
      N   50   -0.22021      0.99971     2.69605    0.02446     3.72021
      N   51   -0.21830      0.99969     2.69332    0.02528     3.71830
      N   52   -0.21253      0.99967     2.68915    0.02371     3.71253
     Fe   53    0.68159      8.99528     3.29726    0.02587    12.31841
      H   54    0.25038      0.00000     0.24866    0.00097     0.24962
      H   55    0.12240      0.00000     0.37697    0.00063     0.37760
      H   56    0.10654      0.00000     0.39268    0.00078     0.39346
      H   57    0.11548      0.00000     0.38380    0.00072     0.38452
      H   58    0.12322      0.00000     0.37601    0.00077     0.37678
      H   59    0.10969      0.00000     0.38976    0.00055     0.39031
      H   60    0.11741      0.00000     0.38188    0.00071     0.38259
      H   61    0.11566      0.00000     0.38366    0.00068     0.38434
      H   62    0.11781      0.00000     0.38089    0.00129     0.38219
      H   63    0.11351      0.00000     0.38510    0.00139     0.38649
      H   64    0.11013      0.00000     0.38928    0.00058     0.38987
      H   65    0.11711      0.00000     0.38210    0.00079     0.38289
      H   66    0.12035      0.00000     0.37893    0.00072     0.37965
      H   67    0.11438      0.00000     0.38405    0.00157     0.38562
      H   68    0.11396      0.00000     0.38502    0.00102     0.38604
      H   69    0.10733      0.00000     0.39209    0.00059     0.39267
      H   70    0.11705      0.00000     0.38219    0.00075     0.38295
      H   71    0.11233      0.00000     0.38619    0.00149     0.38767
      H   72    0.11229      0.00000     0.38703    0.00068     0.38771
      H   73    0.11193      0.00000     0.38728    0.00080     0.38807
      H   74    0.11582      0.00000     0.38344    0.00075     0.38418
      H   75    0.11636      0.00000     0.38292    0.00073     0.38364
      H   76    0.11661      0.00000     0.38261    0.00077     0.38339
      H   77    0.12647      0.00000     0.37294    0.00058     0.37353
      H   78    0.10308      0.00000     0.39614    0.00078     0.39692
      H   79    0.25973      0.00000     0.23929    0.00098     0.24027
      H   80    0.11633      0.00000     0.38287    0.00080     0.38367
      H   81    0.21334      0.00000     0.28591    0.00076     0.28666
      H   82    0.11841      0.00000     0.38083    0.00077     0.38159
      H   83    0.11995      0.00000     0.37951    0.00054     0.38005
      H   84    0.11939      0.00000     0.38003    0.00058     0.38061
      H   85    0.11215      0.00000     0.38729    0.00056     0.38785
      H   86    0.12110      0.00000     0.37849    0.00041     0.37890
      H   87    0.11798      0.00000     0.38137    0.00066     0.38202
      H   88    0.12565      0.00000     0.37366    0.00068     0.37435
      H   89    0.10895      0.00000     0.39043    0.00062     0.39105
      H   90    0.11325      0.00000     0.38622    0.00052     0.38675
      H   91    0.10967      0.00000     0.38976    0.00056     0.39033
      H   92    0.10681      0.00000     0.39179    0.00140     0.39319
      H   93    0.12443      0.00000     0.37456    0.00101     0.37557
      H   94    0.09374      0.00000     0.40516    0.00110     0.40626
      H   95    0.10406      0.00000     0.39520    0.00075     0.39594
      H   96    0.10760      0.00000     0.39146    0.00094     0.39240
      H   97    0.10210      0.00000     0.39672    0.00118     0.39790
      H   98    0.10426      0.00000     0.39485    0.00089     0.39574
      H   99    0.10529      0.00000     0.39345    0.00126     0.39471
 =======================================================================
   * Total *    1.00000     64.97479   137.39486    0.63035   203.00000

 Normal termination of Gaussian 16 at Sat Jan 21 04:02:25 2023.
