 Gaussian 16, Revision A.03,

 ----------------------------------------------------------------------
 # PBE1PBE/def2TZVP empiricaldispersion=GD3BJ int=(grid=ultrafine) geom
 =check guess=read pop=nbo
 ----------------------------------------------------------------------

 -------------
 1cce_II_S_nbo
 -------------
 Structure from the checkpoint file:  "1cce_II_S.chk"
 Charge =  0 Multiplicity = 1

 SCF Done:  E(RPBE1PBE) =  -3249.20735511     A.U. after    1 cycles

 Summary of Natural Population Analysis:

                                       Natural Population
                Natural  -----------------------------------------------
    Atom  No    Charge         Core      Valence    Rydberg      Total
 -----------------------------------------------------------------------
      C    1   -0.21952      1.99911     4.20459    0.01582     6.21952
      C    2   -0.15084      1.99912     4.14027    0.01144     6.15084
      C    3   -0.17452      1.99910     4.15926    0.01615     6.17452
      C    4   -0.21087      1.99909     4.19561    0.01617     6.21087
      C    5    0.13528      1.99894     3.84496    0.02082     5.86472
      C    6   -0.03388      1.99887     4.01572    0.01929     6.03388
      C    7   -0.00204      1.99893     3.98701    0.01610     6.00204
      C    8    0.12843      1.99899     3.85052    0.02205     5.87157
      C    9   -0.63567      1.99940     4.62874    0.00753     6.63567
      C   10   -0.41144      1.99932     4.39718    0.01494     6.41144
      C   11   -0.50686      1.99928     4.49040    0.01717     6.50686
      C   12    0.76042      1.99953     3.20222    0.03784     5.23958
      O   13   -0.57201      1.99977     6.54682    0.02543     8.57201
      O   14   -0.65225      1.99956     6.61990    0.03280     8.65225
      C   15    0.11704      1.99903     3.86338    0.02055     5.88296
      C   16    0.08843      1.99894     3.89434    0.01830     5.91157
      C   17   -0.18349      1.99888     4.16190    0.02271     6.18349
      C   18    0.17956      1.99907     3.80071    0.02066     5.82044
      C   19   -0.63683      1.99938     4.62856    0.00888     6.63683
      C   20   -0.01415      1.99919     3.99492    0.02005     6.01415
      C   21   -0.70289      1.99874     4.66928    0.03487     6.70289
      C   22    0.09680      1.99892     3.88258    0.02171     5.90320
      C   23    0.10271      1.99858     3.87583    0.02288     5.89729
      C   24   -0.19269      1.99885     4.17415    0.01970     6.19269
      C   25    0.18622      1.99905     3.79282    0.02191     5.81378
      C   26   -1.22530      1.99906     5.16468    0.06156     7.22530
      C   27   -0.06798      1.99930     4.05299    0.01569     6.06798
      C   28   -0.55825      1.99911     4.53315    0.02599     6.55825
      C   29    0.12846      1.99897     3.85013    0.02244     5.87154
      C   30   -0.01842      1.99880     4.00195    0.01767     6.01842
      C   31   -0.02779      1.99883     4.00871    0.02025     6.02779
      C   32    0.12533      1.99900     3.85441    0.02127     5.87467
      C   33   -0.63617      1.99940     4.62911    0.00766     6.63617
      C   34   -0.42944      1.99936     4.41506    0.01502     6.42944
      C   35   -0.50480      1.99926     4.48766    0.01788     6.50480
      C   36    0.76551      1.99949     3.19645    0.03855     5.23449
      O   37   -0.57643      1.99977     6.55175    0.02492     8.57643
      O   38   -0.67359      1.99954     6.64337    0.03068     8.67359
      N   39   -0.39353      1.99925     5.34964    0.04464     7.39353
      N   40   -0.35933      1.99927     5.31501    0.04505     7.35933
      N   41   -0.39332      1.99916     5.35260    0.04156     7.39332
      N   42   -0.45106      1.99928     5.40596    0.04582     7.45106
     Fe   43    0.21558     17.98425     7.76728    0.03288    25.78442
      O   44   -0.78948      1.99981     6.77274    0.01693     8.78948
      O   45   -0.75740      1.99983     6.72902    0.02855     8.75740
      H   46    0.19633      0.00000     0.80049    0.00318     0.80367
      H   47    0.20783      0.00000     0.78892    0.00325     0.79217
      H   48    0.22928      0.00000     0.76586    0.00485     0.77072
      H   49    0.20529      0.00000     0.79165    0.00305     0.79471
      H   50    0.21747      0.00000     0.78129    0.00124     0.78253
      H   51    0.22883      0.00000     0.76957    0.00160     0.77117
      H   52    0.22304      0.00000     0.77542    0.00154     0.77696
      H   53    0.20947      0.00000     0.78865    0.00188     0.79053
      H   54    0.23750      0.00000     0.76045    0.00205     0.76250
      H   55    0.23861      0.00000     0.75964    0.00175     0.76139
      H   56    0.20239      0.00000     0.79534    0.00226     0.79761
      H   57    0.24476      0.00000     0.75303    0.00221     0.75524
      H   58    0.23997      0.00000     0.75819    0.00184     0.76003
      H   59    0.20428      0.00000     0.79443    0.00129     0.79572
      H   60    0.18525      0.00000     0.81216    0.00259     0.81475
      H   61    0.22449      0.00000     0.77323    0.00228     0.77551
      H   62    0.25147      0.00000     0.74318    0.00534     0.74853
      H   63    0.40071      0.00000     0.59753    0.00176     0.59929
      H   64    0.42530      0.00000     0.56867    0.00603     0.57470
      H   65    0.43084      0.00000     0.56670    0.00246     0.56916
      H   66    0.18745      0.00000     0.81035    0.00220     0.81255
      H   67    0.22037      0.00000     0.77778    0.00185     0.77963
      H   68    0.15717      0.00000     0.84060    0.00223     0.84283
      H   69    0.21789      0.00000     0.78066    0.00145     0.78211
      H   70    0.22819      0.00000     0.77025    0.00155     0.77181
      H   71    0.22397      0.00000     0.77486    0.00117     0.77603
      H   72    0.22059      0.00000     0.77758    0.00183     0.77941
      H   73    0.22668      0.00000     0.77141    0.00191     0.77332
      H   74    0.23385      0.00000     0.76433    0.00182     0.76615
      H   75    0.23789      0.00000     0.76055    0.00156     0.76211
      H   76    0.50399      0.00000     0.49341    0.00260     0.49601
      H   77    0.51063      0.00000     0.48569    0.00369     0.48937
      H   78    0.44371      0.00000     0.54860    0.00769     0.55629
      H   79    0.48845      0.00000     0.50923    0.00233     0.51155
      H   80    0.52121      0.00000     0.47626    0.00254     0.47879
      H   81    0.50736      0.00000     0.49034    0.00230     0.49264
 =======================================================================
   * Total *    0.00000    105.94834   234.87965    1.17202   342.00000

 Normal termination of Gaussian 16 at Fri Sep 16 14:34:02 2022.
 Gaussian 16:  ES64L-G16RevA.03 25-Dec-2016

 ----------------------------------------------------------------------
 # PBE1PBE/def2TZVP empiricaldispersion=GD3BJ int=(grid=ultrafine) geom
 =check guess=read scrf=(smd,solvent=Chloroform)
 ----------------------------------------------------------------------

 --------------
 1cce_II_S_solv
 --------------
 Structure from the checkpoint file:  "1cce_II_S.chk"
 Charge =  0 Multiplicity = 1

                         Standard orientation:
 ---------------------------------------------------------------------
 Center     Atomic      Atomic             Coordinates (Angstroms)
 Number     Number       Type             X           Y           Z
 ---------------------------------------------------------------------
      1          6           0        2.215484   -0.034313   -0.468490
      2          6           0       -1.124328   -3.435501    0.033210
      3          6           0       -4.473291   -0.021934    0.043667
      4          6           0       -1.062382    3.310246    0.023569
      5          6           0        1.611099   -1.296830   -0.349515
      6          6           0        2.323720   -2.480111   -0.313105
      7          6           0        1.348523   -3.500464   -0.227404
      8          6           0        0.129757   -2.832754   -0.119690
      9          6           0        1.539919   -5.008531   -0.317125
     10          6           0        3.841227   -2.531964   -0.435963
     11          6           0        4.570689   -2.742716    0.872777
     12          6           0        6.093415   -2.861194    0.807805
     13          8           0        6.621235   -3.874269    0.364406
     14          8           0        6.814177   -1.962617    1.233293
     15          6           0       -2.387413   -2.820475   -0.002318
     16          6           0       -3.609475   -3.511460   -0.068331
     17          6           0       -4.585953   -2.507799   -0.114796
     18          6           0       -3.883671   -1.293382   -0.058715
     19          6           0       -3.753549   -5.033739   -0.192963
     20          6           0       -5.983958   -2.575512   -0.200172
     21          6           0       -6.845188   -3.744108   -0.264294
     22          6           0       -3.864962    1.228138    0.165479
     23          6           0       -4.525987    2.429559    0.411385
     24          6           0       -3.501120    3.400403    0.437684
     25          6           0       -2.321978    2.706560    0.173346
     26          6           0       -6.019771    2.577510    0.652748
     27          6           0       -3.492219    4.791514    0.642049
     28          6           0       -4.594230    5.718064    0.808893
     29          6           0        0.188112    2.744433   -0.117602
     30          6           0        1.352683    3.433818   -0.430946
     31          6           0        2.300255    2.453684   -0.596719
     32          6           0        1.648320    1.247063   -0.345634
     33          6           0        1.615391    4.926534   -0.599629
     34          6           0        3.747742    2.704319   -0.993064
     35          6           0        4.661098    2.395575    0.164091
     36          6           0        6.130769    2.605574   -0.056171
     37          8           0        6.901481    2.219508    0.820036
     38          8           0        6.527814    3.134318   -1.084460
     39          7           0        0.298328   -1.514080   -0.223336
     40          7           0       -2.561667   -1.500946   -0.077988
     41          7           0       -2.537976    1.404342    0.093476
     42          7           0        0.376959    1.437161    0.007086
     43         26           0       -1.107873   -0.026320   -0.060815
     44          8           0       -0.925722   -0.369372    1.918194
     45          8           0       -1.171312    0.359346   -2.029312
     46          1           0        3.263285   -0.049652   -0.684771
     47          1           0       -1.120817   -4.492881    0.197024
     48          1           0       -5.543079   -0.010633    0.025623
     49          1           0       -1.074684    4.380161    0.018084
     50          1           0        0.688487   -5.501752    0.103227
     51          1           0        1.647199   -5.294051   -1.342732
     52          1           0        2.418556   -5.289430    0.225086
     53          1           0        4.136965   -1.562601   -0.779147
     54          1           0        4.054099   -3.397188   -1.028391
     55          1           0        4.231602   -3.691851    1.232030
     56          1           0        4.383375   -1.856862    1.442932
     57          1           0       -4.365410   -5.400570    0.604509
     58          1           0       -4.208955   -5.273278   -1.131114
     59          1           0       -2.786767   -5.489089   -0.139210
     60          1           0       -6.488480   -1.632156   -0.221085
     61          1           0       -7.788874   -3.905549   -0.742095
     62          1           0       -6.540043   -3.689126   -1.288385
     63          1           0       -6.694727    3.383886    0.455028
     64          1           0       -5.652036    3.296195    1.355002
     65          1           0       -6.011176    2.561077   -0.417092
     66          1           0       -2.519527    5.235700    0.680405
     67          1           0       -4.839037    5.797816    1.847455
     68          1           0       -5.445616    5.360749    0.268182
     69          1           0        2.518659    5.189551   -0.089895
     70          1           0        1.713207    5.156124   -1.640119
     71          1           0        0.798631    5.481266   -0.187225
     72          1           0        3.836551    3.753702   -1.182294
     73          1           0        3.980888    2.000036   -1.764121
     74          1           0        4.550947    1.345094    0.335138
     75          1           0        4.390074    3.093417    0.928592
     76          1           0       -1.329726   -0.099500    2.746173
     77          1           0       -0.062202    0.041647    1.834548
     78          1           0       -1.575316    0.629218   -1.201333
     79          1           0       -0.307792    0.770365   -2.112958
     80          1           0        6.948956    3.996294   -1.049296
     81          1           0        6.694223   -1.633694    2.127173
 ---------------------------------------------------------------------

 SCF Done:  E(RPBE1PBE) =  -3249.28111480     A.U. after   18 cycles

 The electronic state is 1-A.
 Alpha  occ. eigenvalues -- -256.34751 -30.11294 -25.94130 -25.93849 -25.93678
 Alpha  occ. eigenvalues --  -19.25477 -19.25258 -19.24412 -19.22296 -19.18180
 Alpha  occ. eigenvalues --  -19.17615 -14.40014 -14.38929 -14.38312 -14.37583
 Alpha  occ. eigenvalues --  -10.35079 -10.34634 -10.29219 -10.27245 -10.26466
 Alpha  occ. eigenvalues --  -10.26364 -10.26139 -10.25876 -10.25745 -10.25538
 Alpha  occ. eigenvalues --  -10.25535 -10.25212 -10.25165 -10.25028 -10.23668
 Alpha  occ. eigenvalues --  -10.23530 -10.23513 -10.23449 -10.23378 -10.23263
 Alpha  occ. eigenvalues --  -10.23032 -10.22965 -10.22935 -10.22801 -10.22761
 Alpha  occ. eigenvalues --  -10.22603 -10.22590 -10.22549 -10.21757 -10.21108
 Alpha  occ. eigenvalues --  -10.21042 -10.20031 -10.19917 -10.18145  -3.46663
 Alpha  occ. eigenvalues --   -2.23353  -2.21981  -2.21604  -1.18205  -1.17631
 Alpha  occ. eigenvalues --   -1.08162  -1.07415  -1.03961  -1.03547  -1.02779
 Alpha  occ. eigenvalues --   -1.01751  -1.01205  -1.00141  -0.87062  -0.85865
 Alpha  occ. eigenvalues --   -0.85214  -0.84627  -0.84290  -0.83137  -0.82733
 Alpha  occ. eigenvalues --   -0.80687  -0.80030  -0.79098  -0.77989  -0.76714
 Alpha  occ. eigenvalues --   -0.75414  -0.74849  -0.73338  -0.72746  -0.71334
 Alpha  occ. eigenvalues --   -0.70536  -0.69246  -0.68187  -0.67958  -0.66535
 Alpha  occ. eigenvalues --   -0.66263  -0.64230  -0.63625  -0.60959  -0.60745
 Alpha  occ. eigenvalues --   -0.60129  -0.59597  -0.57916  -0.56951  -0.56332
 Alpha  occ. eigenvalues --   -0.55431  -0.54395  -0.54153  -0.53915  -0.52778
 Alpha  occ. eigenvalues --   -0.52308  -0.52009  -0.51444  -0.51074  -0.50723
 Alpha  occ. eigenvalues --   -0.50336  -0.50125  -0.49921  -0.49258  -0.47735
 Alpha  occ. eigenvalues --   -0.47399  -0.47179  -0.46635  -0.46136  -0.45948
 Alpha  occ. eigenvalues --   -0.45764  -0.45315  -0.44923  -0.44619  -0.44293
 Alpha  occ. eigenvalues --   -0.44146  -0.43736  -0.43370  -0.43205  -0.42416
 Alpha  occ. eigenvalues --   -0.42259  -0.41737  -0.41585  -0.41405  -0.41014
 Alpha  occ. eigenvalues --   -0.40596  -0.40146  -0.40070  -0.39811  -0.39421
 Alpha  occ. eigenvalues --   -0.39184  -0.38800  -0.38592  -0.38242  -0.38050
 Alpha  occ. eigenvalues --   -0.37896  -0.37840  -0.37615  -0.37155  -0.36889
 Alpha  occ. eigenvalues --   -0.36635  -0.36405  -0.35233  -0.34430  -0.34310
 Alpha  occ. eigenvalues --   -0.33891  -0.33229  -0.33119  -0.32713  -0.31979
 Alpha  occ. eigenvalues --   -0.30797  -0.30034  -0.29570  -0.28778  -0.27989
 Alpha  occ. eigenvalues --   -0.27409  -0.26254  -0.25477  -0.24730  -0.24522
 Alpha  occ. eigenvalues --   -0.23380  -0.22751  -0.21303  -0.20528  -0.19588
 Alpha  occ. eigenvalues --   -0.18908
 Alpha virt. eigenvalues --   -0.10784  -0.10092  -0.07026  -0.05259  -0.02042
 Alpha virt. eigenvalues --   -0.01319  -0.00706  -0.00590   0.00063   0.00807
 Alpha virt. eigenvalues --    0.02265   0.03112   0.04383   0.04856   0.05142

 Mulliken charges:
               1
     1  C   -0.397430
     2  C   -0.491066
     3  C   -0.519161
     4  C   -0.463062
     5  C    0.239786
     6  C    0.001344
     7  C   -0.137241
     8  C    0.332131
     9  C   -0.415614
    10  C   -0.342636
    11  C   -0.193360
    12  C    0.300863
    13  O   -0.396366
    14  O   -0.331296
    15  C    0.287491
    16  C   -0.077825
    17  C   -0.084740
    18  C    0.307494
    19  C   -0.345399
    20  C    0.004583
    21  C   -0.653025
    22  C    0.283546
    23  C   -0.137493
    24  C   -0.017317
    25  C    0.253319
    26  C   -0.723552
    27  C   -0.023339
    28  C   -0.596030
    29  C    0.222667
    30  C   -0.088041
    31  C    0.027080
    32  C    0.180464
    33  C   -0.442140
    34  C   -0.266230
    35  C   -0.193896
    36  C    0.258107
    37  O   -0.391663
    38  O   -0.343983
    39  N   -0.033779
    40  N   -0.020206
    41  N   -0.080163
    42  N   -0.220689
    43  Fe  -0.198010
    44  O   -0.535004
    45  O   -0.443685
    46  H    0.133198
    47  H    0.149869
    48  H    0.156738
    49  H    0.135255
    50  H    0.146742
    51  H    0.161447
    52  H    0.150154
    53  H    0.126689
    54  H    0.136153
    55  H    0.137479
    56  H    0.119548
    57  H    0.155960
    58  H    0.153092
    59  H    0.131538
    60  H    0.149914
    61  H    0.162020
    62  H    0.152620
    63  H    0.297904
    64  H    0.275516
    65  H    0.288629
    66  H    0.144217
    67  H    0.178872
    68  H    0.130786
    69  H    0.152617
    70  H    0.166326
    71  H    0.151849
    72  H    0.125784
    73  H    0.133596
    74  H    0.119955
    75  H    0.148061
    76  H    0.371282
    77  H    0.368930
    78  H    0.239706
    79  H    0.368878
    80  H    0.393999
    81  H    0.389244
 Sum of Mulliken charges =  -0.00000

 Dipole moment (field-independent basis, Debye):
    X=              4.4551    Y=              8.6164    Z=              1.3753  Tot=              9.7970
 Quadrupole moment (field-independent basis, Debye-Ang):
   XX=           -351.9071   YY=           -280.2190   ZZ=           -260.8639
   XY=             24.0019   XZ=              7.9984   YZ=             -8.9048

 Normal termination of Gaussian 16 at Fri Sep 16 18:24:04 2022.
