 Gaussian 16, Revision A.03,
 Gaussian 16:  ES64L-G16RevA.03 25-Dec-2016

 ----------------------------------------------------------------------
 # PBE1PBE/def2TZVP empiricaldispersion=GD3BJ scf=maxcycle=999 geom=che
 ck pop=nbo
 ----------------------------------------------------------------------

 ---------
 1vb6_II_Q
 ---------
 Structure from the checkpoint file:  "1vb6_II_Q.chk"
 Charge =  0 Multiplicity = 5

                         Standard orientation:
 ---------------------------------------------------------------------
 Center     Atomic      Atomic             Coordinates (Angstroms)
 Number     Number       Type             X           Y           Z
 ---------------------------------------------------------------------
      1          6           0       -1.455645   -1.216367    5.645066
      2          6           0       -1.437922   -0.507888    4.325486
      3          7           0       -1.724946    0.833824    4.194790
      4          6           0       -1.140542   -0.952647    3.082565
      5          6           0       -1.602520    1.187248    2.928847
      6          7           0       -1.248726    0.122251    2.231468
      7          6           0        1.457369   -0.728434   -4.075599
      8          6           0        1.065548   -0.818595   -2.615159
      9         16           0       -0.356622    0.230336   -2.212341
     10          6           0       -1.624416   -0.593734   -3.174630
     11          6           0        2.524573   -0.267427    0.801395
     12          6           0       -1.235425   -3.278693    0.106440
     13          6           0       -4.167596    0.511484   -0.597025
     14          6           0       -0.440137    3.547876    0.084674
     15          6           0        1.723095   -1.440851    0.685002
     16          6           0        2.260081   -2.790917    0.826210
     17          6           0        1.195074   -3.645858    0.621036
     18          6           0        0.037595   -2.813010    0.362684
     19          6           0        1.243141   -5.188840    0.662571
     20          6           0        3.695233   -3.140826    1.261979
     21          6           0        4.458942   -3.907309    0.192288
     22          6           0        4.646643   -3.122504   -1.086039
     23          8           0        4.221239   -3.628544   -2.126235
     24          8           0        5.205453   -2.003897   -1.036639
     25          6           0       -2.354157   -2.511307   -0.148123
     26          6           0       -3.652821   -3.061896   -0.417421
     27          6           0       -4.542963   -2.015933   -0.619723
     28          6           0       -3.700355   -0.793915   -0.467066
     29          6           0       -3.943238   -4.588176   -0.464904
     30          6           0       -5.945936   -2.155310   -0.911031
     31          6           0       -6.674414   -3.034085   -1.770115
     32          6           0       -3.393321    1.663766   -0.468714
     33          6           0       -3.963675    3.003475   -0.641865
     34          6           0       -2.897215    3.890208   -0.445699
     35          6           0       -1.723900    3.053648   -0.165588
     36          6           0       -5.449107    3.292945   -0.976901
     37          6           0       -2.862187    5.325805   -0.497364
     38          6           0       -3.563148    6.228976   -1.330607
     39          6           0        0.702569    2.784993    0.335242
     40          6           0        2.034863    3.331427    0.568878
     41          6           0        2.862540    2.260355    0.760516
     42          6           0        2.027415    1.058652    0.660890
     43          6           0        2.448569    4.815647    0.576403
     44          6           0        4.372547    2.292659    1.029013
     45          6           0        5.029521    1.947800   -0.314074
     46          6           0        6.490995    2.360453   -0.457022
     47          8           0        7.022937    2.220889   -1.589857
     48          8           0        7.093146    2.815695    0.546526
     49          7           0        0.370227   -1.471399    0.410538
     50          7           0       -2.370852   -1.096552   -0.168459
     51          7           0       -2.041053    1.679360   -0.175407
     52          7           0        0.712286    1.390735    0.393382
     53         26           0       -0.782814    0.122142    0.163453
     54          1           0        6.474175    2.064160   -2.361800
     55          1           0        4.966016    0.889017   -0.454950
     56          1           0        4.470177    2.424508   -1.091752
     57          1           0        4.633603    1.563780    1.767583
     58          1           0        4.671668    3.269113    1.348331
     59          1           0        1.573790    5.429988    0.528998
     60          1           0        2.987461    5.031148    1.475322
     61          1           0        3.071750    5.016503   -0.269885
     62          1           0        3.567100   -0.391843    1.007692
     63          1           0       -0.321977    4.611332    0.084176
     64          1           0       -5.912146    2.401137   -1.344558
     65          1           0       -5.956697    3.620305   -0.093675
     66          1           0       -5.503894    4.057220   -1.723749
     67          1           0       -5.207468    0.640930   -0.813380
     68          1           0       -4.477318   -4.821874   -1.362146
     69          1           0       -3.019355   -5.127701   -0.448976
     70          1           0       -4.532955   -4.865603    0.383723
     71          1           0       -1.368852   -4.340340    0.104869
     72          1           0        0.762726   -5.584207   -0.207939
     73          1           0        2.262454   -5.513429    0.685859
     74          1           0        0.737545   -5.537979    1.538571
     75          1           0        3.651279   -3.737057    2.149378
     76          1           0        4.220968   -2.234648    1.479564
     77          1           0        5.421950   -4.167973    0.579031
     78          1           0        3.924240   -4.806376   -0.032817
     79          1           0        3.285043   -3.583719   -2.333908
     80          1           0       -1.762546    2.169010    2.534596
     81          1           0       -1.985404    1.444514    4.942600
     82          1           0       -0.871774   -1.952557    2.812668
     83          1           0       -2.069933   -2.089488    5.572889
     84          1           0       -0.459114   -1.502273    5.909799
     85          1           0       -1.850550   -0.563446    6.395163
     86          1           0       -2.117507    0.120242   -3.800729
     87          1           0       -1.175027   -1.350971   -3.782529
     88          1           0       -2.337578   -1.042437   -2.515111
     89          1           0        0.634145   -0.347089   -4.642855
     90          1           0        2.296535   -0.072830   -4.179921
     91          1           0        1.718199   -1.701695   -4.435642
     92          1           0        0.821967   -1.834691   -2.384684
     93          1           0        1.898331   -0.517455   -2.014586
     94          1           0       -6.443934   -4.078838   -1.786537
     95          1           0       -7.450505   -2.647511   -2.397127
     96          1           0       -6.565552   -1.464063   -0.378910
     97          1           0       -3.346385    6.269239   -2.377647
     98          1           0       -4.310081    6.871824   -0.913788
     99          1           0       -2.200246    5.785001    0.206819
 ---------------------------------------------------------------------

 SCF Done:  E(UPBE1PBE) =  -3879.30570767     A.U. after   79 cycles

 Alpha virt. eigenvalues --    1.01282   1.01437   1.01678   1.02009   1.02281
 Alpha virt. eigenvalues --    1.02553   1.03003   1.03078   1.03484   1.03874
 Alpha virt. eigenvalues --    1.04097   1.04169   1.04369   1.04745   1.04906

  Beta  occ. eigenvalues -- -256.32354 -89.00727 -30.06970 -25.90689 -25.90296
  Beta  occ. eigenvalues --  -25.88676 -19.26242 -19.25879 -19.18666 -19.16629
  Beta  occ. eigenvalues --  -14.44803 -14.38081 -14.37807 -14.37646 -14.37400
  Beta  occ. eigenvalues --  -14.37214 -10.35627 -10.34332 -10.27770 -10.26072
  Beta  occ. eigenvalues --  -10.25740 -10.25522 -10.25093 -10.25032 -10.24922
  Beta  occ. eigenvalues --  -10.24883 -10.24784 -10.24780 -10.24354 -10.23490
  Beta  occ. eigenvalues --  -10.23317 -10.23293 -10.23237 -10.23229 -10.23179
  Beta  occ. eigenvalues --  -10.23170 -10.23100 -10.23075 -10.23034 -10.22914
  Beta  occ. eigenvalues --  -10.22674 -10.22550 -10.22385 -10.22342 -10.22314
  Beta  occ. eigenvalues --  -10.22239 -10.22140 -10.22059 -10.21859 -10.21773
  Beta  occ. eigenvalues --  -10.21707 -10.21596 -10.21588 -10.21543 -10.21513
  Beta  occ. eigenvalues --  -10.21269 -10.20509  -7.98666  -5.92344  -5.92006
  Beta  occ. eigenvalues --   -5.91430  -3.39178  -2.16756  -2.14918  -2.11029
  Beta  occ. eigenvalues --   -1.17790  -1.15906  -1.06465  -1.03197  -1.01435
  Beta  occ. eigenvalues --   -0.97191  -0.96251  -0.95762  -0.94881  -0.90498
  Beta  occ. eigenvalues --   -0.84021  -0.83601  -0.83051  -0.82719  -0.82281
  Beta  occ. eigenvalues --   -0.81584  -0.81250  -0.80453  -0.80350  -0.79002
  Beta  occ. eigenvalues --   -0.77972  -0.76503  -0.76197  -0.75320  -0.74777
  Beta  occ. eigenvalues --   -0.73561  -0.72771  -0.72360  -0.71668  -0.71074
  Beta  occ. eigenvalues --   -0.70585  -0.69351  -0.68834  -0.67437  -0.66504
  Beta  occ. eigenvalues --   -0.66080  -0.64997  -0.64676  -0.64566  -0.62324
  Beta  occ. eigenvalues --   -0.62239  -0.60740  -0.59738  -0.58692  -0.57323
  Beta  occ. eigenvalues --   -0.56606  -0.56068  -0.54614  -0.54154  -0.53524
  Beta  occ. eigenvalues --   -0.53245  -0.52668  -0.51966  -0.51902  -0.50989
  Beta  occ. eigenvalues --   -0.50498  -0.49797  -0.49608  -0.48623  -0.48544
  Beta  occ. eigenvalues --   -0.48120  -0.48092  -0.47865  -0.47778  -0.47134
  Beta  occ. eigenvalues --   -0.46505  -0.45932  -0.45750  -0.45207  -0.44865
  Beta  occ. eigenvalues --   -0.44759  -0.44562  -0.44293  -0.44291  -0.44026
  Beta  occ. eigenvalues --   -0.43960  -0.43716  -0.43534  -0.43379  -0.43355
  Beta  occ. eigenvalues --   -0.43301  -0.43137  -0.42975  -0.42893  -0.42537
  Beta  occ. eigenvalues --   -0.42303  -0.41968  -0.41698  -0.41403  -0.41182
  Beta  occ. eigenvalues --   -0.40821  -0.40340  -0.39723  -0.39619  -0.39419
  Beta  occ. eigenvalues --   -0.39237  -0.39096  -0.39031  -0.38675  -0.38282
  Beta  occ. eigenvalues --   -0.38127  -0.38004  -0.37675  -0.37422  -0.36837
  Beta  occ. eigenvalues --   -0.36723  -0.36457  -0.35989  -0.35734  -0.35644
  Beta  occ. eigenvalues --   -0.35415  -0.34637  -0.34202  -0.33609  -0.32868
  Beta  occ. eigenvalues --   -0.32400  -0.32300  -0.32096  -0.31898  -0.31531
  Beta  occ. eigenvalues --   -0.30995  -0.30247  -0.28447  -0.28410  -0.27906
  Beta  occ. eigenvalues --   -0.26736  -0.26599  -0.25658  -0.25228  -0.24617
  Beta  occ. eigenvalues --   -0.23702  -0.23545  -0.21523  -0.20197  -0.18994
  Beta  occ. eigenvalues --   -0.18859  -0.15636
  Beta virt. eigenvalues --   -0.09135  -0.07567  -0.06937  -0.04393  -0.02844
  Beta virt. eigenvalues --   -0.02213  -0.00699   0.00544   0.00940   0.01731
  Beta virt. eigenvalues --    0.02382   0.02885   0.03031   0.04096   0.04413

 Mulliken charges and spin densities:
               1          2
     1  C   -0.360255   0.001044
     2  C    0.132464   0.001756
     3  N   -0.216763   0.001993
     4  C   -0.161818   0.001182
     5  C    0.029181   0.007530
     6  N   -0.056176   0.033850
     7  C   -0.315275   0.000588
     8  C   -0.248786  -0.006381
     9  S   -0.020853   0.063935
    10  C   -0.367555   0.002769
    11  C   -0.566330  -0.025837
    12  C   -0.544021  -0.036046
    13  C   -0.481581   0.097163
    14  C   -0.532312  -0.021458
    15  C    0.282744  -0.017265
    16  C   -0.103752   0.031779
    17  C   -0.091341  -0.030243
    18  C    0.170393   0.028707
    19  C   -0.393989   0.001950
    20  C   -0.210017  -0.002455
    21  C   -0.208732  -0.000141
    22  C    0.310974   0.000812
    23  O   -0.334831  -0.000054
    24  O   -0.361153  -0.000138
    25  C    0.400827   0.028721
    26  C   -0.067040  -0.058631
    27  C    0.055071   0.064509
    28  C    0.140667  -0.064166
    29  C   -0.388954   0.003882
    30  C   -0.233694  -0.121304
    31  C   -0.301586   0.147756
    32  C    0.344355  -0.101498
    33  C   -0.103655   0.346057
    34  C    0.015948  -0.208377
    35  C    0.209695   0.031628
    36  C   -0.383343  -0.021822
    37  C   -0.189819   0.675605
    38  C   -0.301807   1.026609
    39  C    0.377467   0.011929
    40  C   -0.093963  -0.009856
    41  C   -0.048247   0.019985
    42  C    0.249869  -0.011287
    43  C   -0.417981   0.000708
    44  C   -0.202083  -0.001511
    45  C   -0.352933   0.000635
    46  C    0.323138   0.000208
    47  O   -0.293915   0.000029
    48  O   -0.375519   0.000015
    49  N    0.028127  -0.039890
    50  N   -0.059836  -0.003041
    51  N   -0.042861   0.028379
    52  N    0.013647  -0.038637
    53  Fe  -0.233351   2.138834
    54  H    0.343395  -0.000000
    55  H    0.182867   0.000008
    56  H    0.136517  -0.000009
    57  H    0.123576   0.000339
    58  H    0.125951   0.000125
    59  H    0.124938   0.000006
    60  H    0.143305  -0.000276
    61  H    0.136694  -0.000387
    62  H    0.118871   0.001113
    63  H    0.088104   0.005606
    64  H    0.126516   0.003641
    65  H    0.139744   0.013310
    66  H    0.142070   0.007939
    67  H    0.090387  -0.004853
    68  H    0.124966  -0.001267
    69  H    0.119106  -0.000308
    70  H    0.147235  -0.001987
    71  H    0.096162   0.001431
    72  H    0.134967  -0.000952
    73  H    0.123414  -0.000211
    74  H    0.141525  -0.001253
    75  H    0.127129   0.001039
    76  H    0.123063   0.000095
    77  H    0.126720   0.000162
    78  H    0.093843   0.000019
    79  H    0.356987  -0.000013
    80  H    0.170076   0.000882
    81  H    0.226100   0.002286
    82  H    0.143354   0.000950
    83  H    0.146841   0.000002
    84  H    0.147464   0.000022
    85  H    0.115774   0.000004
    86  H    0.145853   0.000458
    87  H    0.141814   0.001124
    88  H    0.159139   0.002406
    89  H    0.139743  -0.000138
    90  H    0.121148   0.000392
    91  H    0.098888   0.002406
    92  H    0.107942   0.001027
    93  H    0.163048   0.000495
    94  H    0.134203  -0.008420
    95  H    0.143572  -0.008531
    96  H    0.126186   0.007860
    97  H    0.145371  -0.010707
    98  H    0.141206  -0.015939
    99  H    0.125784   0.019598
 Sum of Mulliken charges =  -0.00000   4.00000

 Dipole moment (field-independent basis, Debye):
    X=             -6.1956    Y=             -3.3357    Z=              1.8861  Tot=              7.2849
 Quadrupole moment (field-independent basis, Debye-Ang):
   XX=           -376.4211   YY=           -300.5687   ZZ=           -288.4901
   XY=            -25.5619   XZ=            -18.1449   YZ=             -0.2633

 Summary of Natural Population Analysis:

                                       Natural Population
                Natural  -----------------------------------------------
    Atom  No    Charge         Core      Valence    Rydberg      Total
 -----------------------------------------------------------------------
      C    1   -0.31898      0.99970     2.31611    0.00317     3.31898
      C    2    0.04916      0.99954     1.94189    0.00941     2.95084
      N    3   -0.23811      0.99968     2.72815    0.01028     3.73811
      C    4   -0.03393      0.99943     2.02518    0.00931     3.03393
      C    5    0.09833      0.99966     1.89059    0.01142     2.90167
      N    6   -0.16191      0.99973     2.63866    0.02352     3.66191
      C    7   -0.30988      0.99973     2.30569    0.00447     3.30988
      C    8   -0.26862      0.99966     2.25908    0.00987     3.26862
      S    9    0.27208      4.99941     2.70727    0.02125     7.72792
      C   10   -0.37678      0.99964     2.36874    0.00840     3.37678
      C   11   -0.12545      0.99953     2.11804    0.00788     3.12545
      C   12   -0.13814      0.99947     2.12986    0.00881     3.13814
      C   13   -0.08171      0.99948     2.07378    0.00845     3.08171
      C   14   -0.14207      0.99949     2.13448    0.00809     3.14207
      C   15    0.05216      0.99954     1.93711    0.01119     2.94784
      C   16   -0.00859      0.99945     1.99937    0.00978     3.00859
      C   17   -0.03750      0.99944     2.02928    0.00877     3.03750
      C   18    0.07674      0.99950     1.91287    0.01089     2.92326
      C   19   -0.31804      0.99969     2.31465    0.00370     3.31804
      C   20   -0.20824      0.99966     2.20161    0.00697     3.20824
      C   21   -0.25454      0.99963     2.24661    0.00831     3.25454
      C   22    0.39392      0.99974     1.58831    0.01803     2.60608
      O   23   -0.34168      0.99977     3.32651    0.01539     4.34168
      O   24   -0.29267      0.99989     3.28119    0.01159     4.29267
      C   25    0.07877      0.99949     1.91122    0.01052     2.92123
      C   26   -0.01963      0.99945     2.01177    0.00840     3.01963
      C   27   -0.03527      0.99944     2.02593    0.00990     3.03527
      C   28    0.06189      0.99954     1.92789    0.01067     2.93811
      C   29   -0.31597      0.99969     2.31243    0.00385     3.31597
      C   30   -0.14233      0.99965     2.13327    0.00941     3.14233
      C   31   -0.13509      0.99971     2.12892    0.00646     3.13509
      C   32    0.02521      0.99952     1.96414    0.01113     2.97479
      C   33    0.15982      0.99948     1.83276    0.00794     2.84018
      C   34   -0.12146      0.99947     2.11261    0.00938     3.12146
      C   35    0.10228      0.99953     1.88756    0.01063     2.89772
      C   36   -0.32396      0.99969     2.32089    0.00337     3.32396
      C   37    0.20819      0.99965     1.78412    0.00804     2.79181
      C   38    0.31859      0.99970     1.67740    0.00430     2.68141
      C   39    0.09249      0.99952     1.89745    0.01054     2.90751
      C   40   -0.02590      0.99942     2.01819    0.00829     3.02590
      C   41   -0.00008      0.99944     1.99154    0.00911     3.00008
      C   42    0.06475      0.99955     1.92563    0.01008     2.93525
      C   43   -0.31665      0.99969     2.31322    0.00374     3.31665
      C   44   -0.21125      0.99968     2.20382    0.00775     3.21125
      C   45   -0.26111      0.99963     2.25278    0.00870     3.26111
      C   46    0.38378      0.99975     1.59953    0.01694     2.61622
      O   47   -0.31485      0.99981     3.30015    0.01489     4.31485
      O   48   -0.29791      0.99989     3.28623    0.01178     4.29791
      N   49   -0.20695      0.99969     2.68387    0.02338     3.70695
      N   50   -0.19940      0.99973     2.67829    0.02139     3.69940
      N   51   -0.17334      0.99971     2.64906    0.02457     3.67334
      N   52   -0.21254      0.99969     2.69297    0.01989     3.71254
     Fe   53    1.10380      8.99511     2.87681    0.02429    11.89620
      H   54    0.25044      0.00000     0.24858    0.00098     0.24956
      H   55    0.12426      0.00000     0.37509    0.00065     0.37574
      H   56    0.10799      0.00000     0.39123    0.00079     0.39201
      H   57    0.11268      0.00000     0.38658    0.00074     0.38732
      H   58    0.11819      0.00000     0.38103    0.00078     0.38181
      H   59    0.10814      0.00000     0.39127    0.00058     0.39186
      H   60    0.11129      0.00000     0.38792    0.00079     0.38871
      H   61    0.10976      0.00000     0.38948    0.00077     0.39024
      H   62    0.11039      0.00000     0.38829    0.00132     0.38961
      H   63    0.10813      0.00000     0.39056    0.00131     0.39187
      H   64    0.10956      0.00000     0.38985    0.00059     0.39044
      H   65    0.11685      0.00000     0.38249    0.00066     0.38315
      H   66    0.11637      0.00000     0.38297    0.00066     0.38363
      H   67    0.10613      0.00000     0.39229    0.00158     0.39387
      H   68    0.10954      0.00000     0.38936    0.00111     0.39046
      H   69    0.10594      0.00000     0.39344    0.00062     0.39406
      H   70    0.11122      0.00000     0.38793    0.00084     0.38878
      H   71    0.10559      0.00000     0.39287    0.00154     0.39441
      H   72    0.10842      0.00000     0.39078    0.00080     0.39158
      H   73    0.10670      0.00000     0.39246    0.00083     0.39330
      H   74    0.11020      0.00000     0.38891    0.00089     0.38980
      H   75    0.11041      0.00000     0.38865    0.00094     0.38959
      H   76    0.11541      0.00000     0.38379    0.00079     0.38459
      H   77    0.12049      0.00000     0.37887    0.00064     0.37951
      H   78    0.10203      0.00000     0.39715    0.00082     0.39797
      H   79    0.26196      0.00000     0.23703    0.00101     0.23804
      H   80    0.11246      0.00000     0.38670    0.00084     0.38754
      H   81    0.20619      0.00000     0.29300    0.00081     0.29381
      H   82    0.11448      0.00000     0.38474    0.00078     0.38552
      H   83    0.11534      0.00000     0.38407    0.00059     0.38466
      H   84    0.11440      0.00000     0.38496    0.00064     0.38560
      H   85    0.10678      0.00000     0.39262    0.00060     0.39322
      H   86    0.11367      0.00000     0.38587    0.00045     0.38633
      H   87    0.11103      0.00000     0.38825    0.00072     0.38897
      H   88    0.12230      0.00000     0.37697    0.00073     0.37770
      H   89    0.10708      0.00000     0.39208    0.00083     0.39292
      H   90    0.10691      0.00000     0.39238    0.00070     0.39309
      H   91    0.10134      0.00000     0.39788    0.00079     0.39866
      H   92    0.10237      0.00000     0.39611    0.00152     0.39763
      H   93    0.12080      0.00000     0.37824    0.00097     0.37920
      H   94    0.09123      0.00000     0.40761    0.00115     0.40877
      H   95    0.09928      0.00000     0.39992    0.00080     0.40072
      H   96    0.10352      0.00000     0.39550    0.00098     0.39648
      H   97    0.09455      0.00000     0.40476    0.00069     0.40545
      H   98    0.09070      0.00000     0.40854    0.00075     0.40930
      H   99    0.11603      0.00000     0.38319    0.00078     0.38397
 =======================================================================
   * Total *    2.00000     64.97478   136.40773    0.61749   202.00000

 Normal termination of Gaussian 16 at Sat Jan 21 13:47:20 2023.
