 Gaussian 16, Revision A.03,
 Gaussian 16:  ES64L-G16RevA.03 25-Dec-2016

 ----------------------------------------------------------------------
 # PBE1PBE/def2TZVP scf=qc empiricaldispersion=GD3BJ scf=maxcycle=999 g
 eom=check pop=nbo
 ----------------------------------------------------------------------

 ----------
 1vb6_III_H
 ----------
 Structure from the checkpoint file:  "1vb6_III_H.chk"
 Charge =  1 Multiplicity = 6

                         Standard orientation:
 ---------------------------------------------------------------------
 Center     Atomic      Atomic             Coordinates (Angstroms)
 Number     Number       Type             X           Y           Z
 ---------------------------------------------------------------------
      1          6           0       -1.455645   -1.216367    5.645066
      2          6           0       -1.437922   -0.507888    4.325486
      3          7           0       -1.724946    0.833824    4.194790
      4          6           0       -1.140542   -0.952647    3.082565
      5          6           0       -1.602520    1.187248    2.928847
      6          7           0       -1.248726    0.122251    2.231468
      7          6           0        1.457369   -0.728434   -4.075599
      8          6           0        1.065548   -0.818595   -2.615159
      9         16           0       -0.356622    0.230336   -2.212341
     10          6           0       -1.624416   -0.593734   -3.174630
     11          6           0        2.524573   -0.267427    0.801395
     12          6           0       -1.235425   -3.278693    0.106440
     13          6           0       -4.167596    0.511484   -0.597025
     14          6           0       -0.440137    3.547876    0.084674
     15          6           0        1.723095   -1.440851    0.685002
     16          6           0        2.260081   -2.790917    0.826210
     17          6           0        1.195074   -3.645858    0.621036
     18          6           0        0.037595   -2.813010    0.362684
     19          6           0        1.243141   -5.188840    0.662571
     20          6           0        3.695233   -3.140826    1.261979
     21          6           0        4.458942   -3.907309    0.192288
     22          6           0        4.646643   -3.122504   -1.086039
     23          8           0        4.221239   -3.628544   -2.126235
     24          8           0        5.205453   -2.003897   -1.036639
     25          6           0       -2.354157   -2.511307   -0.148123
     26          6           0       -3.652821   -3.061896   -0.417421
     27          6           0       -4.542963   -2.015933   -0.619723
     28          6           0       -3.700355   -0.793915   -0.467066
     29          6           0       -3.943238   -4.588176   -0.464904
     30          6           0       -5.945936   -2.155310   -0.911031
     31          6           0       -6.674414   -3.034085   -1.770115
     32          6           0       -3.393321    1.663766   -0.468714
     33          6           0       -3.963675    3.003475   -0.641865
     34          6           0       -2.897215    3.890208   -0.445699
     35          6           0       -1.723900    3.053648   -0.165588
     36          6           0       -5.449107    3.292945   -0.976901
     37          6           0       -2.862187    5.325805   -0.497364
     38          6           0       -3.563148    6.228976   -1.330607
     39          6           0        0.702569    2.784993    0.335242
     40          6           0        2.034863    3.331427    0.568878
     41          6           0        2.862540    2.260355    0.760516
     42          6           0        2.027415    1.058652    0.660890
     43          6           0        2.448569    4.815647    0.576403
     44          6           0        4.372547    2.292659    1.029013
     45          6           0        5.029521    1.947800   -0.314074
     46          6           0        6.490995    2.360453   -0.457022
     47          8           0        7.022937    2.220889   -1.589857
     48          8           0        7.093146    2.815695    0.546526
     49          7           0        0.370227   -1.471399    0.410538
     50          7           0       -2.370852   -1.096552   -0.168459
     51          7           0       -2.041053    1.679360   -0.175407
     52          7           0        0.712286    1.390735    0.393382
     53         26           0       -0.782814    0.122142    0.163453
     54          1           0        6.474175    2.064160   -2.361800
     55          1           0        4.966016    0.889017   -0.454950
     56          1           0        4.470177    2.424508   -1.091752
     57          1           0        4.633603    1.563780    1.767583
     58          1           0        4.671668    3.269113    1.348331
     59          1           0        1.573790    5.429988    0.528998
     60          1           0        2.987461    5.031148    1.475322
     61          1           0        3.071750    5.016503   -0.269885
     62          1           0        3.567100   -0.391843    1.007692
     63          1           0       -0.321977    4.611332    0.084176
     64          1           0       -5.912146    2.401137   -1.344558
     65          1           0       -5.956697    3.620305   -0.093675
     66          1           0       -5.503894    4.057220   -1.723749
     67          1           0       -5.207468    0.640930   -0.813380
     68          1           0       -4.477318   -4.821874   -1.362146
     69          1           0       -3.019355   -5.127701   -0.448976
     70          1           0       -4.532955   -4.865603    0.383723
     71          1           0       -1.368852   -4.340340    0.104869
     72          1           0        0.762726   -5.584207   -0.207939
     73          1           0        2.262454   -5.513429    0.685859
     74          1           0        0.737545   -5.537979    1.538571
     75          1           0        3.651279   -3.737057    2.149378
     76          1           0        4.220968   -2.234648    1.479564
     77          1           0        5.421950   -4.167973    0.579031
     78          1           0        3.924240   -4.806376   -0.032817
     79          1           0        3.285043   -3.583719   -2.333908
     80          1           0       -1.762546    2.169010    2.534596
     81          1           0       -1.985404    1.444514    4.942600
     82          1           0       -0.871774   -1.952557    2.812668
     83          1           0       -2.069933   -2.089488    5.572889
     84          1           0       -0.459114   -1.502273    5.909799
     85          1           0       -1.850550   -0.563446    6.395163
     86          1           0       -2.117507    0.120242   -3.800729
     87          1           0       -1.175027   -1.350971   -3.782529
     88          1           0       -2.337578   -1.042437   -2.515111
     89          1           0        0.634145   -0.347089   -4.642855
     90          1           0        2.296535   -0.072830   -4.179921
     91          1           0        1.718199   -1.701695   -4.435642
     92          1           0        0.821967   -1.834691   -2.384684
     93          1           0        1.898331   -0.517455   -2.014586
     94          1           0       -6.443934   -4.078838   -1.786537
     95          1           0       -7.450505   -2.647511   -2.397127
     96          1           0       -6.565552   -1.464063   -0.378910
     97          1           0       -3.346385    6.269239   -2.377647
     98          1           0       -4.310081    6.871824   -0.913788
     99          1           0       -2.200246    5.785001    0.206819
 ---------------------------------------------------------------------

 SCF Done:  E(UPBE1PBE) =  -3879.06732418     a.u. after   31 cycles

 Alpha virt. eigenvalues --    0.91660   0.91861   0.92164   0.92272   0.92527
 Alpha virt. eigenvalues --    0.92765   0.93156   0.93191   0.93782   0.93941
 Alpha virt. eigenvalues --    0.94075   0.94392   0.94702   0.94817   0.95018

  Beta  occ. eigenvalues -- -256.51557 -89.15682 -30.27905 -26.10888 -26.10805
  Beta  occ. eigenvalues --  -26.10068 -19.33726 -19.32980 -19.26519 -19.23521
  Beta  occ. eigenvalues --  -14.55559 -14.51497 -14.50202 -14.50149 -14.49723
  Beta  occ. eigenvalues --  -14.49620 -10.43490 -10.41365 -10.39341 -10.37451
  Beta  occ. eigenvalues --  -10.36739 -10.36438 -10.36354 -10.36177 -10.36057
  Beta  occ. eigenvalues --  -10.35550 -10.35203 -10.35023 -10.34905 -10.34419
  Beta  occ. eigenvalues --  -10.34068 -10.33930 -10.33868 -10.33590 -10.33509
  Beta  occ. eigenvalues --  -10.33073 -10.32938 -10.32778 -10.32757 -10.32552
  Beta  occ. eigenvalues --  -10.32489 -10.32434 -10.32295 -10.32010 -10.31967
  Beta  occ. eigenvalues --  -10.31792 -10.31421 -10.31299 -10.30979 -10.30911
  Beta  occ. eigenvalues --  -10.30646 -10.30457 -10.30424 -10.30399 -10.30287
  Beta  occ. eigenvalues --  -10.30244 -10.30092  -8.13409  -6.07007  -6.06755
  Beta  occ. eigenvalues --   -6.06335  -3.60337  -2.35936  -2.35440  -2.34902
  Beta  occ. eigenvalues --   -1.25648  -1.22677  -1.17754  -1.11051  -1.08411
  Beta  occ. eigenvalues --   -1.08294  -1.07350  -1.06988  -1.05987  -1.02227
  Beta  occ. eigenvalues --   -0.96040  -0.93738  -0.92988  -0.92044  -0.91831
  Beta  occ. eigenvalues --   -0.91777  -0.91395  -0.91046  -0.90422  -0.88365
  Beta  occ. eigenvalues --   -0.87796  -0.87081  -0.85750  -0.85239  -0.84632
  Beta  occ. eigenvalues --   -0.82910  -0.82822  -0.81657  -0.80781  -0.80484
  Beta  occ. eigenvalues --   -0.79295  -0.79166  -0.78967  -0.76754  -0.75872
  Beta  occ. eigenvalues --   -0.75740  -0.75371  -0.74360  -0.73397  -0.73180
  Beta  occ. eigenvalues --   -0.71590  -0.71241  -0.70514  -0.69108  -0.68347
  Beta  occ. eigenvalues --   -0.67471  -0.65709  -0.64713  -0.63854  -0.63505
  Beta  occ. eigenvalues --   -0.62266  -0.62108  -0.61877  -0.61165  -0.60291
  Beta  occ. eigenvalues --   -0.59916  -0.59491  -0.58837  -0.58764  -0.58659
  Beta  occ. eigenvalues --   -0.58491  -0.58323  -0.58201  -0.57249  -0.56614
  Beta  occ. eigenvalues --   -0.56449  -0.56073  -0.55624  -0.54639  -0.54361
  Beta  occ. eigenvalues --   -0.54078  -0.53954  -0.53727  -0.53628  -0.53451
  Beta  occ. eigenvalues --   -0.53265  -0.53143  -0.53076  -0.52910  -0.52733
  Beta  occ. eigenvalues --   -0.52537  -0.52331  -0.52204  -0.51984  -0.51856
  Beta  occ. eigenvalues --   -0.51765  -0.51626  -0.51330  -0.50788  -0.50747
  Beta  occ. eigenvalues --   -0.50634  -0.50337  -0.50140  -0.49869  -0.49536
  Beta  occ. eigenvalues --   -0.49367  -0.48989  -0.48789  -0.48615  -0.48275
  Beta  occ. eigenvalues --   -0.48081  -0.47677  -0.47410  -0.47164  -0.46941
  Beta  occ. eigenvalues --   -0.46635  -0.46492  -0.46259  -0.45976  -0.45658
  Beta  occ. eigenvalues --   -0.45153  -0.44959  -0.44647  -0.43718  -0.43171
  Beta  occ. eigenvalues --   -0.42748  -0.42630  -0.42426  -0.42048  -0.41817
  Beta  occ. eigenvalues --   -0.41477  -0.40302  -0.38533  -0.38321  -0.37846
  Beta  occ. eigenvalues --   -0.37091  -0.36696  -0.36282  -0.35818  -0.35392
  Beta  occ. eigenvalues --   -0.34744  -0.34331  -0.33533  -0.32727  -0.30698
  Beta  occ. eigenvalues --   -0.28667
  Beta virt. eigenvalues --   -0.24853  -0.19546  -0.18568  -0.16577  -0.15558
  Beta virt. eigenvalues --   -0.14845  -0.12735  -0.11903  -0.11427  -0.10414
  Beta virt. eigenvalues --   -0.08779  -0.08323  -0.07931  -0.06886  -0.06209

 Mulliken charges and spin densities:
               1          2
     1  C   -0.347337  -0.000292
     2  C    0.122778  -0.000495
     3  N   -0.200615   0.001576
     4  C   -0.155971   0.000675
     5  C    0.038897   0.008812
     6  N   -0.017622  -0.036050
     7  C   -0.324480  -0.001324
     8  C   -0.259472   0.004708
     9  S    0.065726  -0.035312
    10  C   -0.373345   0.001297
    11  C   -0.569686   0.503313
    12  C   -0.471629   0.108023
    13  C   -0.483442   0.457669
    14  C   -0.444600   0.120618
    15  C    0.291532  -0.140635
    16  C   -0.118648   0.133381
    17  C   -0.075691  -0.090355
    18  C    0.138824   0.121313
    19  C   -0.378317   0.005202
    20  C   -0.203885  -0.010347
    21  C   -0.220575   0.004816
    22  C    0.309050  -0.000502
    23  O   -0.323555   0.000170
    24  O   -0.357056   0.000079
    25  C    0.353603   0.101231
    26  C   -0.065679  -0.080686
    27  C    0.047901   0.166330
    28  C    0.157479  -0.059696
    29  C   -0.374723   0.001535
    30  C   -0.241059  -0.304479
    31  C   -0.282521   0.400632
    32  C    0.346359  -0.178092
    33  C   -0.112743   0.390024
    34  C    0.023549  -0.230432
    35  C    0.182827   0.190650
    36  C   -0.368972  -0.022667
    37  C   -0.155338   0.714539
    38  C   -0.300775   1.018939
    39  C    0.315419   0.128275
    40  C   -0.086547  -0.003842
    41  C   -0.060440   0.099196
    42  C    0.275848   0.011402
    43  C   -0.400720  -0.001804
    44  C   -0.196302  -0.010951
    45  C   -0.350908   0.006044
    46  C    0.325335   0.000720
    47  O   -0.284292   0.000325
    48  O   -0.362854   0.000766
    49  N    0.048496   0.106307
    50  N   -0.003205   0.127315
    51  N   -0.032533   0.144364
    52  N    0.074002   0.069883
    53  Fe  -0.314153   1.110344
    54  H    0.342370  -0.000041
    55  H    0.178229  -0.000763
    56  H    0.132817  -0.000192
    57  H    0.129365   0.003399
    58  H    0.138461   0.000595
    59  H    0.127137   0.000058
    60  H    0.159186   0.000966
    61  H    0.151461   0.001141
    62  H    0.142354  -0.023517
    63  H    0.112366  -0.001147
    64  H    0.133125   0.004162
    65  H    0.155301   0.014890
    66  H    0.154317   0.008460
    67  H    0.114258  -0.022042
    68  H    0.136462  -0.001152
    69  H    0.121691  -0.000135
    70  H    0.162515  -0.001340
    71  H    0.122134  -0.005703
    72  H    0.142104  -0.001643
    73  H    0.138546  -0.000391
    74  H    0.154890  -0.002717
    75  H    0.141524   0.003599
    76  H    0.128013   0.001197
    77  H    0.146290   0.000783
    78  H    0.102033  -0.000190
    79  H    0.351249  -0.000152
    80  H    0.186459  -0.000234
    81  H    0.248982  -0.000376
    82  H    0.160408  -0.000011
    83  H    0.158107   0.000037
    84  H    0.159687   0.000067
    85  H    0.131181  -0.000017
    86  H    0.171524  -0.000685
    87  H    0.167680  -0.000469
    88  H    0.174341  -0.000925
    89  H    0.147858  -0.000003
    90  H    0.141987  -0.000052
    91  H    0.126238  -0.000197
    92  H    0.126569  -0.000576
    93  H    0.175263  -0.000340
    94  H    0.145257  -0.022006
    95  H    0.158654  -0.022652
    96  H    0.135487   0.019959
    97  H    0.163262  -0.008437
    98  H    0.165050  -0.012128
    99  H    0.139875   0.018406
 Sum of Mulliken charges =   1.00000   5.00000

 Dipole moment (field-independent basis, Debye):
    X=             -9.8231    Y=             -2.3079    Z=              1.3561  Tot=             10.1813
 Quadrupole moment (field-independent basis, Debye-Ang):
   XX=           -322.6820   YY=           -246.6515   ZZ=           -254.6438
   XY=            -29.9441   XZ=            -15.8997   YZ=             -1.4470

 Summary of Natural Population Analysis:

                                       Natural Population
                Natural  -----------------------------------------------
    Atom  No    Charge         Core      Valence    Rydberg      Total
 -----------------------------------------------------------------------
      C    1   -0.32120      0.99969     2.31833    0.00318     3.32120
      C    2    0.06184      0.99954     1.92970    0.00892     2.93816
      N    3   -0.23175      0.99968     2.72203    0.01005     3.73175
      C    4   -0.03639      0.99943     2.02763    0.00934     3.03639
      C    5    0.10535      0.99966     1.88389    0.01110     2.89465
      N    6   -0.18361      0.99969     2.65912    0.02480     3.68361
      C    7   -0.31184      0.99973     2.30586    0.00625     3.31184
      C    8   -0.26523      0.99965     2.25609    0.00949     3.26523
      S    9    0.28141      4.99941     2.69854    0.02064     7.71859
      C   10   -0.37978      0.99964     2.37146    0.00867     3.37978
      C   11    0.11119      0.99952     1.88190    0.00739     2.88881
      C   12   -0.01582      0.99947     2.00857    0.00778     3.01582
      C   13    0.08065      0.99947     1.91206    0.00782     2.91935
      C   14   -0.01377      0.99949     2.00695    0.00732     3.01377
      C   15    0.02305      0.99954     1.96740    0.01002     2.97695
      C   16    0.03778      0.99944     1.95316    0.00961     2.96222
      C   17   -0.04587      0.99944     2.03817    0.00826     3.04587
      C   18    0.09733      0.99950     1.89284    0.01033     2.90267
      C   19   -0.31854      0.99969     2.31511    0.00374     3.31854
      C   20   -0.21103      0.99966     2.20430    0.00707     3.21103
      C   21   -0.25394      0.99962     2.24598    0.00834     3.25394
      C   22    0.39280      0.99974     1.58956    0.01790     2.60720
      O   23   -0.33795      0.99977     3.32254    0.01564     4.33795
      O   24   -0.29117      0.99989     3.27959    0.01169     4.29117
      C   25    0.08313      0.99948     1.90705    0.01034     2.91687
      C   26   -0.00908      0.99946     2.00152    0.00810     3.00908
      C   27    0.00052      0.99943     1.99065    0.00940     2.99948
      C   28    0.08431      0.99954     1.90592    0.01023     2.91569
      C   29   -0.31523      0.99969     2.31172    0.00382     3.31523
      C   30   -0.23231      0.99965     2.22329    0.00937     3.23231
      C   31    0.00117      0.99970     1.99343    0.00570     2.99883
      C   32    0.00630      0.99953     1.98405    0.01013     2.99370
      C   33    0.19025      0.99948     1.80286    0.00741     2.80975
      C   34   -0.13031      0.99947     2.12193    0.00890     3.13031
      C   35    0.15796      0.99953     1.83277    0.00975     2.84204
      C   36   -0.32488      0.99969     2.32193    0.00325     3.32488
      C   37    0.25235      0.99965     1.74068    0.00733     2.74765
      C   38    0.32269      0.99970     1.67337    0.00423     2.67731
      C   39    0.10815      0.99952     1.88193    0.01040     2.89185
      C   40    0.01046      0.99942     1.98224    0.00788     2.98954
      C   41    0.02390      0.99944     1.96771    0.00895     2.97610
      C   42    0.09931      0.99954     1.89162    0.00953     2.90069
      C   43   -0.31805      0.99969     2.31469    0.00367     3.31805
      C   44   -0.21246      0.99968     2.20513    0.00765     3.21246
      C   45   -0.25816      0.99963     2.25004    0.00850     3.25816
      C   46    0.38271      0.99975     1.60081    0.01673     2.61729
      O   47   -0.31061      0.99981     3.29571    0.01509     4.31061
      O   48   -0.29107      0.99990     3.27937    0.01181     4.29107
      N   49   -0.14374      0.99967     2.61979    0.02428     3.64374
      N   50   -0.12135      0.99970     2.59771    0.02394     3.62135
      N   51   -0.13117      0.99969     2.60634    0.02513     3.63117
      N   52   -0.14236      0.99967     2.61820    0.02449     3.64236
     Fe   53    0.65528      8.99526     3.32356    0.02590    12.34472
      H   54    0.25020      0.00000     0.24883    0.00097     0.24980
      H   55    0.12152      0.00000     0.37785    0.00063     0.37848
      H   56    0.10624      0.00000     0.39297    0.00079     0.39376
      H   57    0.11488      0.00000     0.38442    0.00071     0.38512
      H   58    0.12281      0.00000     0.37642    0.00076     0.37719
      H   59    0.10835      0.00000     0.39109    0.00056     0.39165
      H   60    0.11764      0.00000     0.38163    0.00073     0.38236
      H   61    0.11595      0.00000     0.38335    0.00070     0.38405
      H   62    0.10948      0.00000     0.38925    0.00127     0.39052
      H   63    0.11174      0.00000     0.38699    0.00127     0.38826
      H   64    0.11146      0.00000     0.38798    0.00056     0.38854
      H   65    0.12242      0.00000     0.37699    0.00059     0.37758
      H   66    0.12093      0.00000     0.37847    0.00061     0.37907
      H   67    0.10714      0.00000     0.39130    0.00156     0.39286
      H   68    0.11392      0.00000     0.38501    0.00107     0.38608
      H   69    0.10544      0.00000     0.39397    0.00060     0.39456
      H   70    0.11642      0.00000     0.38280    0.00078     0.38358
      H   71    0.11039      0.00000     0.38808    0.00152     0.38961
      H   72    0.11083      0.00000     0.38848    0.00068     0.38917
      H   73    0.11210      0.00000     0.38710    0.00080     0.38790
      H   74    0.11412      0.00000     0.38512    0.00077     0.38588
      H   75    0.11733      0.00000     0.38194    0.00072     0.38267
      H   76    0.11653      0.00000     0.38270    0.00077     0.38347
      H   77    0.12647      0.00000     0.37295    0.00058     0.37353
      H   78    0.10281      0.00000     0.39641    0.00078     0.39719
      H   79    0.25957      0.00000     0.23946    0.00098     0.24043
      H   80    0.11615      0.00000     0.38304    0.00080     0.38385
      H   81    0.21349      0.00000     0.28575    0.00075     0.28651
      H   82    0.11852      0.00000     0.38072    0.00076     0.38148
      H   83    0.12017      0.00000     0.37929    0.00054     0.37983
      H   84    0.11959      0.00000     0.37983    0.00058     0.38041
      H   85    0.11227      0.00000     0.38716    0.00056     0.38773
      H   86    0.12140      0.00000     0.37819    0.00041     0.37860
      H   87    0.11852      0.00000     0.38083    0.00065     0.38148
      H   88    0.12623      0.00000     0.37308    0.00069     0.37377
      H   89    0.10883      0.00000     0.39055    0.00062     0.39117
      H   90    0.11351      0.00000     0.38597    0.00052     0.38649
      H   91    0.11019      0.00000     0.38925    0.00056     0.38981
      H   92    0.10716      0.00000     0.39144    0.00139     0.39284
      H   93    0.12437      0.00000     0.37462    0.00101     0.37563
      H   94    0.08703      0.00000     0.41182    0.00115     0.41297
      H   95    0.09736      0.00000     0.40185    0.00079     0.40264
      H   96    0.11029      0.00000     0.38882    0.00088     0.38971
      H   97    0.10125      0.00000     0.39814    0.00062     0.39875
      H   98    0.09973      0.00000     0.39961    0.00066     0.40027
      H   99    0.11605      0.00000     0.38327    0.00069     0.38395
 =======================================================================
   * Total *    3.00000     64.97474   135.41163    0.61363   201.00000

 Normal termination of Gaussian 16 at Wed Feb  1 09:12:44 2023.
