 Gaussian 16, Revision A.03,
 Gaussian 16:  ES64L-G16RevA.03 25-Dec-2016

 ----------------------------------------------------------------------
 # PBE1PBE/def2TZVP empiricaldispersion=GD3BJ geom=check guess=read scr
 f=(smd,solvent=Chloroform)
 ----------------------------------------------------------------------

 --------------
 1a6k_II_Q_solv
 --------------
 Structure from the checkpoint file:  "1a6k_II_Q.chk"
 Charge =  0 Multiplicity = 5

                         Standard orientation:
 ---------------------------------------------------------------------
 Center     Atomic      Atomic             Coordinates (Angstroms)
 Number     Number       Type             X           Y           Z
 ---------------------------------------------------------------------
      1          6           0       -1.628464   -0.035347    5.376603
      2          6           0       -1.246317   -0.363958    3.971197
      3          7           0       -0.384630   -1.372420    3.687947
      4          6           0       -1.530114    0.272890    2.789900
      5          6           0       -0.188023   -1.369426    2.368862
      6          7           0       -0.866560   -0.399928    1.778997
      7         26           0       -0.752908    0.099032   -0.294427
      8          6           0        2.609922   -0.530376   -0.320170
      9          6           0       -1.399339   -3.153495   -1.159378
     10          6           0       -4.109755    0.760360   -0.488845
     11          6           0       -0.131812    3.366302    0.296355
     12          7           0        0.357060   -1.523923   -0.757296
     13          6           0        1.763245   -1.623084   -0.614916
     14          6           0        2.167268   -2.970271   -0.830887
     15          6           0        1.040221   -3.721774   -1.113479
     16          6           0       -0.041543   -2.810355   -1.005407
     17          6           0        0.908708   -5.186288   -1.462268
     18          6           0        3.600327   -3.496641   -0.723195
     19          6           0        3.766799   -4.342399    0.558866
     20          6           0        3.498716   -3.508402    1.828964
     21          8           0        2.561911   -3.891291    2.549556
     22          8           0        4.223241   -2.493865    2.025092
     23          7           0       -2.424873   -0.976527   -0.779977
     24          6           0       -2.507206   -2.337492   -1.045260
     25          6           0       -3.864746   -2.736750   -1.200029
     26          6           0       -4.656428   -1.656828   -1.028466
     27          6           0       -3.750216   -0.531330   -0.712240
     28          6           0       -4.296299   -4.172073   -1.499493
     29          6           0       -6.142090   -1.512924   -1.147596
     30          6           0       -6.850195   -2.199454   -2.017639
     31          7           0       -1.916101    1.743657   -0.045526
     32          6           0       -3.292748    1.867833   -0.219508
     33          6           0       -3.702619    3.214792   -0.147178
     34          6           0       -2.574123    3.953948    0.056811
     35          6           0       -1.459253    3.052842    0.083881
     36          6           0       -5.124967    3.717419   -0.310928
     37          6           0       -2.374798    5.437669    0.046976
     38          6           0       -3.291499    6.356809    0.105326
     39          7           0        0.922273    1.213805   -0.020313
     40          6           0        0.940878    2.547587    0.259988
     41          6           0        2.365053    2.946215    0.330286
     42          6           0        3.107949    1.901220    0.141689
     43          6           0        2.254263    0.761191   -0.056825
     44          6           0        2.810032    4.410884    0.604205
     45          6           0        4.636883    1.849962   -0.014667
     46          6           0        5.048924    2.203065   -1.464035
     47          6           0        6.518479    2.258581   -1.689718
     48          8           0        7.129012    3.301571   -1.411168
     49          8           0        7.084536    1.339938   -2.272002
     50          8           0       -0.637587    0.758156   -2.314977
     51          1           0       -1.766485    1.021518    5.470866
     52          1           0       -2.539967   -0.537648    5.625110
     53          1           0       -0.852808   -0.354411    6.041025
     54          1           0       -2.152704    1.135001    2.671386
     55          1           0        0.027266   -2.002032    4.346681
     56          1           0        0.440301   -2.064701    1.852432
     57          1           0        0.148602    0.923725   -2.840423
     58          1           0       -0.386698    0.347295   -1.484406
     59          1           0       -6.450282   -2.406860   -2.988182
     60          1           0       -7.826204   -2.550589   -1.754942
     61          1           0       -6.646479   -0.825879   -0.500711
     62          1           0       -3.607393   -4.615395   -2.187805
     63          1           0       -4.307246   -4.738027   -0.591486
     64          1           0       -5.276374   -4.167621   -1.928833
     65          1           0       -1.597399   -4.178253   -1.395055
     66          1           0        1.722895   -5.477324   -2.092583
     67          1           0        0.925886   -5.769483   -0.565335
     68          1           0       -0.015774   -5.348995   -1.975843
     69          1           0       -5.160500    0.959493   -0.523221
     70          1           0       -5.362917    3.781600   -1.352159
     71          1           0       -5.800169    3.039537    0.168111
     72          1           0       -5.214785    4.685546    0.135795
     73          1           0       -3.561369    6.899979   -0.776170
     74          1           0       -3.776465    6.570483    1.034870
     75          1           0       -1.362953    5.780033   -0.015130
     76          1           0        0.073780    4.392487    0.519009
     77          1           0        2.818135    4.958964   -0.314731
     78          1           0        2.125910    4.869694    1.287119
     79          1           0        3.792224    4.411782    1.028700
     80          1           0        5.083889    2.550382    0.659497
     81          1           0        4.982438    0.864866    0.220020
     82          1           0        4.632863    1.469395   -2.122458
     83          1           0        4.632222    3.157017   -1.711492
     84          1           0        7.573877    1.512728   -3.079645
     85          1           0        3.658740   -0.741367   -0.301077
     86          1           0        3.819598   -4.102524   -1.577435
     87          1           0        4.279191   -2.670153   -0.692197
     88          1           0        4.765215   -4.725285    0.597124
     89          1           0        3.079487   -5.161879    0.527997
     90          1           0        4.708308   -2.102074    1.295154
 ---------------------------------------------------------------------

 SCF Done:  E(UPBE1PBE) =  -3438.56689356     A.U. after   32 cycles

 Alpha virt. eigenvalues --    0.71402   0.71673   0.71825   0.72068   0.72596
 Alpha virt. eigenvalues --    0.72948   0.73184   0.73404   0.73680   0.74061
 Alpha virt. eigenvalues --    0.74201   0.74523   0.74957   0.75196   0.75896

  Beta  occ. eigenvalues -- -256.33338 -30.06095 -25.89712 -25.89373 -25.88741
  Beta  occ. eigenvalues --  -19.27148 -19.25431 -19.18659 -19.18422 -19.17650
  Beta  occ. eigenvalues --  -14.43433 -14.37898 -14.36709 -14.36565 -14.36457
  Beta  occ. eigenvalues --  -14.36327 -10.35881 -10.34809 -10.26885 -10.25627
  Beta  occ. eigenvalues --  -10.25263 -10.25149 -10.24984 -10.24836 -10.24688
  Beta  occ. eigenvalues --  -10.24657 -10.24569 -10.24535 -10.23302 -10.22987
  Beta  occ. eigenvalues --  -10.22789 -10.22758 -10.22744 -10.22715 -10.22712
  Beta  occ. eigenvalues --  -10.22689 -10.22592 -10.22583 -10.22495 -10.22461
  Beta  occ. eigenvalues --  -10.22436 -10.22418 -10.22227 -10.22000 -10.21703
  Beta  occ. eigenvalues --  -10.21657 -10.21336 -10.21107 -10.20884 -10.20732
  Beta  occ. eigenvalues --  -10.20535 -10.20279 -10.20245 -10.20076  -3.37925
  Beta  occ. eigenvalues --   -2.14371  -2.12233  -2.12021  -1.17872  -1.16786
  Beta  occ. eigenvalues --   -1.05358  -1.04055  -1.03463  -1.02887  -0.97608
  Beta  occ. eigenvalues --   -0.96701  -0.96591  -0.95564  -0.90250  -0.84235
  Beta  occ. eigenvalues --   -0.83617  -0.83269  -0.82868  -0.82549  -0.81272
  Beta  occ. eigenvalues --   -0.80853  -0.79847  -0.79204  -0.78650  -0.77852
  Beta  occ. eigenvalues --   -0.77246  -0.75637  -0.74228  -0.72526  -0.71949
  Beta  occ. eigenvalues --   -0.71206  -0.71110  -0.69939  -0.69503  -0.69225
  Beta  occ. eigenvalues --   -0.67037  -0.66081  -0.65805  -0.65235  -0.63545
  Beta  occ. eigenvalues --   -0.61270  -0.61157  -0.60455  -0.59785  -0.57849
  Beta  occ. eigenvalues --   -0.57548  -0.56336  -0.55243  -0.54904  -0.54418
  Beta  occ. eigenvalues --   -0.53769  -0.53524  -0.52517  -0.52072  -0.51921
  Beta  occ. eigenvalues --   -0.51537  -0.50901  -0.50239  -0.49336  -0.49163
  Beta  occ. eigenvalues --   -0.48964  -0.48756  -0.48175  -0.47003  -0.46771
  Beta  occ. eigenvalues --   -0.46216  -0.45902  -0.45714  -0.45258  -0.45085
  Beta  occ. eigenvalues --   -0.44378  -0.44190  -0.44028  -0.43856  -0.43755
  Beta  occ. eigenvalues --   -0.43550  -0.43260  -0.42797  -0.42629  -0.42400
  Beta  occ. eigenvalues --   -0.42070  -0.41928  -0.41832  -0.41565  -0.41377
  Beta  occ. eigenvalues --   -0.41030  -0.40840  -0.40592  -0.40471  -0.40164
  Beta  occ. eigenvalues --   -0.39921  -0.39724  -0.39354  -0.39103  -0.38959
  Beta  occ. eigenvalues --   -0.38542  -0.38270  -0.38036  -0.37867  -0.37638
  Beta  occ. eigenvalues --   -0.37148  -0.36964  -0.36730  -0.36367  -0.35955
  Beta  occ. eigenvalues --   -0.35665  -0.35270  -0.34192  -0.33730  -0.33408
  Beta  occ. eigenvalues --   -0.33235  -0.32904  -0.32786  -0.32019  -0.31311
  Beta  occ. eigenvalues --   -0.30641  -0.29582  -0.29197  -0.29046  -0.28142
  Beta  occ. eigenvalues --   -0.28008  -0.27305  -0.26188  -0.25255  -0.24111
  Beta  occ. eigenvalues --   -0.23361  -0.22676  -0.20095  -0.19522  -0.18811
  Beta  occ. eigenvalues --   -0.17500
  Beta virt. eigenvalues --   -0.09612  -0.07167  -0.05895  -0.02767  -0.01209
  Beta virt. eigenvalues --   -0.01091  -0.00767   0.00586   0.00898   0.01891
  Beta virt. eigenvalues --    0.02355   0.03456   0.04567   0.04601   0.05259

 Mulliken charges and spin densities:
               1          2
     1  C   -0.406066   0.000832
     2  C    0.153048   0.003313
     3  N   -0.209513   0.001500
     4  C   -0.250245   0.002915
     5  C   -0.020165   0.005172
     6  N   -0.110808   0.034548
     7  Fe   0.050562   3.731170
     8  C   -0.516139  -0.020258
     9  C   -0.505271  -0.016304
    10  C   -0.491521  -0.021674
    11  C   -0.475225  -0.007693
    12  N   -0.086183   0.019401
    13  C    0.278983   0.026331
    14  C   -0.040717  -0.009728
    15  C   -0.073304   0.019618
    16  C    0.302169   0.003441
    17  C   -0.439913  -0.000263
    18  C   -0.397288   0.001678
    19  C   -0.193956  -0.000378
    20  C    0.293694   0.000034
    21  O   -0.414108   0.000040
    22  O   -0.298407  -0.000011
    23  N   -0.076427   0.008574
    24  C    0.230341   0.005053
    25  C   -0.099531   0.014048
    26  C    0.023865  -0.003219
    27  C    0.218376   0.022611
    28  C   -0.409285  -0.000199
    29  C   -0.252299   0.001185
    30  C   -0.346660  -0.000338
    31  N   -0.111904   0.023853
    32  C    0.264978   0.021770
    33  C   -0.088148  -0.002551
    34  C   -0.027754   0.009568
    35  C    0.246362  -0.003739
    36  C   -0.406597   0.001042
    37  C   -0.123258   0.018501
    38  C   -0.449250  -0.016250
    39  N   -0.052914   0.026535
    40  C    0.194670  -0.003139
    41  C   -0.063305   0.014566
    42  C   -0.028079  -0.003877
    43  C    0.230346   0.023363
    44  C   -0.432560  -0.000116
    45  C   -0.341033   0.001511
    46  C   -0.180293  -0.000443
    47  C    0.289949  -0.000024
    48  O   -0.418553   0.000016
    49  O   -0.345877  -0.000004
    50  O   -0.495347   0.076716
    51  H    0.157529   0.000001
    52  H    0.154866   0.000089
    53  H    0.145746   0.000140
    54  H    0.167375   0.000811
    55  H    0.278857   0.000836
    56  H    0.213335   0.000438
    57  H    0.341959   0.012987
    58  H    0.207925  -0.029556
    59  H    0.165642   0.000034
    60  H    0.157284  -0.000044
    61  H    0.148887  -0.000282
    62  H    0.145894   0.000144
    63  H    0.153110   0.000522
    64  H    0.152522   0.000405
    65  H    0.140949   0.000194
    66  H    0.150200   0.000488
    67  H    0.161514   0.000841
    68  H    0.150585   0.000129
    69  H    0.140833   0.000553
    70  H    0.153049  -0.000257
    71  H    0.149103  -0.000202
    72  H    0.152482   0.000225
    73  H    0.169771   0.001846
    74  H    0.168204   0.001782
    75  H    0.150404  -0.001525
    76  H    0.140299  -0.000297
    77  H    0.156977   0.000478
    78  H    0.152615   0.000139
    79  H    0.152155   0.000415
    80  H    0.144942  -0.000009
    81  H    0.127085  -0.000047
    82  H    0.127348   0.000083
    83  H    0.150880   0.000017
    84  H    0.393608  -0.000000
    85  H    0.115949   0.000310
    86  H    0.146138  -0.000262
    87  H    0.164639  -0.000086
    88  H    0.147796  -0.000060
    89  H    0.127141   0.000019
    90  H    0.374961   0.000001
 Sum of Mulliken charges =  -0.00000   4.00000

 Dipole moment (field-independent basis, Debye):
    X=              4.2736    Y=             -4.7374    Z=              0.7642  Tot=              6.4257
 Quadrupole moment (field-independent basis, Debye-Ang):
   XX=           -273.7137   YY=           -289.7969   ZZ=           -273.3265
   XY=            -25.3601   XZ=            -28.3826   YZ=             10.4723

 Normal termination of Gaussian 16 at Thu Nov 10 23:09:27 2022.
