 Gaussian 16, Revision A.03,
 Gaussian 16:  ES64L-G16RevA.03 25-Dec-2016

 ----------------------------------------------------------------------
 # PBE1PBE/def2TZVP empiricaldispersion=GD3BJ scf=maxcycle=999 geom=che
 ck pop=nbo
 ----------------------------------------------------------------------

 ----------
 1vb6_III_H
 ----------
 Structure from the checkpoint file:  "1vb6_III_H.chk"
 Charge =  1 Multiplicity = 6

                         Standard orientation:
 ---------------------------------------------------------------------
 Center     Atomic      Atomic             Coordinates (Angstroms)
 Number     Number       Type             X           Y           Z
 ---------------------------------------------------------------------
      1          6           0       -1.396554   -1.101004    5.656971
      2          6           0       -1.380639   -0.417092    4.324470
      3          7           0       -1.673206    0.920733    4.168633
      4          6           0       -1.080271   -0.883599    3.090271
      5          6           0       -1.551138    1.251094    2.896442
      6          7           0       -1.192228    0.174835    2.219261
      7          6           0        1.025374   -1.346049   -4.059946
      8          6           0        1.130337   -0.846071   -2.607155
      9         16           0       -0.296608    0.204129   -2.225059
     10          6           0       -1.560050   -0.643039   -3.172906
     11          6           0        2.583962   -0.225353    0.799760
     12          6           0       -1.162670   -3.264912    0.157802
     13          6           0       -4.110180    0.499087   -0.618361
     14          6           0       -0.396182    3.563383    0.009850
     15          6           0        1.787548   -1.404121    0.704534
     16          6           0        2.330100   -2.749044    0.871241
     17          6           0        1.268896   -3.612154    0.681118
     18          6           0        0.108143   -2.789160    0.406390
     19          6           0        1.323437   -5.153880    0.751353
     20          6           0        3.766326   -3.084715    1.314609
     21          6           0        4.534221   -3.867694    0.259969
     22          6           0        4.719753   -3.105984   -1.032566
     23          8           0        4.297420   -3.633057   -2.063527
     24          8           0        5.273792   -1.984294   -1.003501
     25          6           0       -2.284402   -2.507133   -0.111889
     26          6           0       -3.580489   -3.068127   -0.371972
     27          6           0       -4.474856   -2.029883   -0.594401
     28          6           0       -3.637550   -0.801682   -0.463788
     29          6           0       -3.864418   -4.596242   -0.391326
     30          6           0       -5.876966   -2.180590   -0.884216
     31          6           0       -6.147325   -3.518703   -1.200891
     32          6           0       -3.340891    1.656824   -0.510849
     33          6           0       -3.916739    2.990657   -0.709328
     34          6           0       -2.854207    3.885391   -0.528800
     35          6           0       -1.677623    3.059157   -0.232234
     36          6           0       -5.403078    3.267557   -1.050898
     37          6           0       -2.825192    5.319916   -0.607101
     38          6           0       -4.066418    5.788298   -1.058653
     39          6           0        0.749509    2.810135    0.275483
     40          6           0        2.079275    3.366454    0.500015
     41          6           0        2.911293    2.302642    0.712197
     42          6           0        2.081337    1.095769    0.634234
     43          6           0        2.486706    4.852297    0.480300
     44          6           0        4.420909    2.346326    0.981282
     45          6           0        5.080535    1.979362   -0.354628
     46          6           0        6.540383    2.395477   -0.504025
     47          8           0        7.073924    2.237147   -1.633635
     48          8           0        7.139707    2.871829    0.491383
     49          7           0        0.435067   -1.445494    0.429580
     50          7           0       -2.307049   -1.093084   -0.158522
     51          7           0       -1.988964    1.683592   -0.216777
     52          7           0        0.765058    1.417251    0.359527
     53         26           0       -0.724467    0.138283    0.151987
     54          1           0       -2.055589    0.057087   -3.812565
     55          1           0       -1.106924   -1.409528   -3.766263
     56          1           0       -2.271903   -1.082431   -2.505747
     57          1           0        1.144904   -1.683910   -1.941788
     58          1           0        2.031096   -0.280830   -2.488685
     59          1           0        0.144211   -0.942389   -4.513280
     60          1           0        1.886736   -1.028436   -4.609562
     61          1           0        0.972245   -2.414710   -4.066405
     62          1           0       -0.807044   -1.887203    2.839219
     63          1           0       -1.714954    2.224676    2.483887
     64          1           0       -1.936909    1.544100    4.904754
     65          1           0       -2.007086   -1.977910    5.600528
     66          1           0       -0.399062   -1.377718    5.927785
     67          1           0       -1.794883   -0.435941    6.394485
     68          1           0        6.526520    2.063782   -2.402982
     69          1           0        5.021626    0.917886   -0.475859
     70          1           0        4.519882    2.439168   -1.141487
     71          1           0        4.684377    1.632405    1.733480
     72          1           0        4.715620    3.329802    1.282646
     73          1           0        1.609385    5.461939    0.420773
     74          1           0        3.023878    5.086741    1.375500
     75          1           0        3.109791    5.040035   -0.369064
     76          1           0       -0.282511    4.627137   -0.010310
     77          1           0       -2.621736    5.725954    0.361733
     78          1           0       -2.059339    5.624451   -1.289470
     79          1           0       -3.932202    6.719133   -1.568978
     80          1           0       -4.495343    5.072797   -1.728713
     81          1           0       -4.719411    5.930584   -0.223037
     82          1           0       -5.862019    2.367119   -1.402301
     83          1           0       -5.912837    3.609115   -0.174322
     84          1           0       -5.460422    4.017587   -1.811863
     85          1           0       -5.150395    0.620085   -0.837933
     86          1           0       -6.450997   -1.893702   -0.028013
     87          1           0       -6.138603   -1.557810   -1.714030
     88          1           0       -6.088113   -4.114130   -0.313839
     89          1           0       -7.130182   -3.595213   -1.616868
     90          1           0       -5.430103   -3.868444   -1.913754
     91          1           0       -4.396703   -4.848829   -1.284507
     92          1           0       -2.938281   -5.131459   -0.364621
     93          1           0       -4.453719   -4.860353    0.461827
     94          1           0       -1.291613   -4.326961    0.175848
     95          1           0        0.845476   -5.567382   -0.112052
     96          1           0        2.344090   -5.473659    0.781501
     97          1           0        0.818535   -5.488824    1.633276
     98          1           0        3.626819   -0.341498    1.009184
     99          1           0        3.724093   -3.664539    2.212897
    100          1           0        4.288036   -2.172432    1.515749
    101          1           0        5.497973   -4.117047    0.652276
    102          1           0        4.003520   -4.773045    0.051170
    103          1           0        3.361230   -3.596065   -2.272762
 ---------------------------------------------------------------------

 SCF Done:  E(UPBE1PBE) =  -3881.64589067     A.U. after   29 cycles

 Alpha virt. eigenvalues --    0.96123   0.96785   0.97229   0.97409   0.97588
 Alpha virt. eigenvalues --    0.97922   0.98237   0.98753   0.99011   0.99115
 Alpha virt. eigenvalues --    0.99502   0.99552   0.99748   1.00322   1.00600

  Beta  occ. eigenvalues -- -256.54752 -89.12921 -30.27899 -26.11155 -26.11066
  Beta  occ. eigenvalues --  -26.11041 -19.33589 -19.33042 -19.26420 -19.23600
  Beta  occ. eigenvalues --  -14.54890 -14.49294 -14.48174 -14.48111 -14.47890
  Beta  occ. eigenvalues --  -14.47744 -10.43403 -10.41467 -10.38563 -10.36283
  Beta  occ. eigenvalues --  -10.36121 -10.36085 -10.36068 -10.35973 -10.35852
  Beta  occ. eigenvalues --  -10.35813 -10.35783 -10.35518 -10.34367 -10.33683
  Beta  occ. eigenvalues --  -10.33588 -10.33457 -10.33233 -10.33100 -10.32836
  Beta  occ. eigenvalues --  -10.32761 -10.32658 -10.32519 -10.32492 -10.32453
  Beta  occ. eigenvalues --  -10.32445 -10.32265 -10.32099 -10.32036 -10.31592
  Beta  occ. eigenvalues --  -10.31263 -10.31000 -10.30546 -10.30464 -10.30429
  Beta  occ. eigenvalues --  -10.30381 -10.30176 -10.30001 -10.29387 -10.29098
  Beta  occ. eigenvalues --  -10.27148 -10.26675  -8.10881  -6.04527  -6.04198
  Beta  occ. eigenvalues --   -6.03668  -3.57004  -2.31542  -2.31259  -2.31220
  Beta  occ. eigenvalues --   -1.25520  -1.22742  -1.16897  -1.10948  -1.08379
  Beta  occ. eigenvalues --   -1.08181  -1.07086  -1.06549  -1.05490  -1.01248
  Beta  occ. eigenvalues --   -0.95076  -0.94831  -0.94691  -0.93541  -0.93015
  Beta  occ. eigenvalues --   -0.92274  -0.91172  -0.90948  -0.90655  -0.88448
  Beta  occ. eigenvalues --   -0.87619  -0.86880  -0.86457  -0.85923  -0.85344
  Beta  occ. eigenvalues --   -0.83542  -0.82310  -0.82244  -0.81831  -0.81198
  Beta  occ. eigenvalues --   -0.79367  -0.79195  -0.78932  -0.76919  -0.75824
  Beta  occ. eigenvalues --   -0.75327  -0.74975  -0.74279  -0.73550  -0.72649
  Beta  occ. eigenvalues --   -0.72533  -0.72491  -0.70072  -0.69138  -0.67943
  Beta  occ. eigenvalues --   -0.66813  -0.66243  -0.65131  -0.64998  -0.63975
  Beta  occ. eigenvalues --   -0.62789  -0.62339  -0.61972  -0.61223  -0.60448
  Beta  occ. eigenvalues --   -0.60197  -0.59823  -0.58844  -0.58771  -0.58544
  Beta  occ. eigenvalues --   -0.58484  -0.58372  -0.58126  -0.57946  -0.57769
  Beta  occ. eigenvalues --   -0.57230  -0.56596  -0.56163  -0.55448  -0.54501
  Beta  occ. eigenvalues --   -0.54427  -0.54003  -0.53981  -0.53667  -0.53375
  Beta  occ. eigenvalues --   -0.53263  -0.53141  -0.53006  -0.52865  -0.52528
  Beta  occ. eigenvalues --   -0.52510  -0.52371  -0.52214  -0.52104  -0.51957
  Beta  occ. eigenvalues --   -0.51822  -0.51693  -0.51350  -0.50953  -0.50759
  Beta  occ. eigenvalues --   -0.50689  -0.50354  -0.50246  -0.50113  -0.49834
  Beta  occ. eigenvalues --   -0.49203  -0.49014  -0.48765  -0.48366  -0.48182
  Beta  occ. eigenvalues --   -0.47921  -0.47547  -0.47215  -0.47070  -0.46690
  Beta  occ. eigenvalues --   -0.46559  -0.46371  -0.45677  -0.45311  -0.45281
  Beta  occ. eigenvalues --   -0.45129  -0.44593  -0.44477  -0.44205  -0.43583
  Beta  occ. eigenvalues --   -0.43178  -0.42945  -0.42619  -0.42571  -0.42525
  Beta  occ. eigenvalues --   -0.41935  -0.41865  -0.41599  -0.41349  -0.41020
  Beta  occ. eigenvalues --   -0.38400  -0.38389  -0.37943  -0.37010  -0.36192
  Beta  occ. eigenvalues --   -0.35139  -0.34807  -0.34301  -0.33645  -0.33557
  Beta  occ. eigenvalues --   -0.33162  -0.29619  -0.29242
  Beta virt. eigenvalues --   -0.20477  -0.20203  -0.18389  -0.16310  -0.15996
  Beta virt. eigenvalues --   -0.13577  -0.11303  -0.10532  -0.10167  -0.07693
  Beta virt. eigenvalues --   -0.07619  -0.06786  -0.06089  -0.05759  -0.05359

 Mulliken charges and spin densities:
               1          2
     1  C   -0.348710   0.001031
     2  C    0.120732   0.005249
     3  N   -0.202383   0.003263
     4  C   -0.154947   0.000365
     5  C    0.032239   0.005130
     6  N   -0.043345   0.055668
     7  C   -0.378276   0.003249
     8  C   -0.160733  -0.004160
     9  S    0.010947   0.115144
    10  C   -0.362517  -0.001146
    11  C   -0.546847  -0.024529
    12  C   -0.549076  -0.017419
    13  C   -0.510208  -0.018538
    14  C   -0.530081  -0.023863
    15  C    0.335993   0.024516
    16  C   -0.112161   0.015668
    17  C   -0.075600   0.022152
    18  C    0.201238   0.013968
    19  C   -0.379114  -0.000231
    20  C   -0.207807  -0.000098
    21  C   -0.222607   0.000510
    22  C    0.311106   0.000149
    23  O   -0.322209   0.000009
    24  O   -0.356831   0.000035
    25  C    0.399757   0.018198
    26  C   -0.110053   0.016402
    27  C   -0.040680   0.018080
    28  C    0.143802   0.018234
    29  C   -0.354840   0.000357
    30  C   -0.157797  -0.000345
    31  C   -0.318319   0.000325
    32  C    0.381954   0.016693
    33  C   -0.166468   0.022805
    34  C   -0.055484   0.015381
    35  C    0.187328   0.027858
    36  C   -0.319712  -0.000173
    37  C   -0.139847  -0.000650
    38  C   -0.313188   0.000273
    39  C    0.415204   0.022316
    40  C   -0.109854   0.023258
    41  C   -0.031660   0.022259
    42  C    0.251937   0.023608
    43  C   -0.402926   0.000136
    44  C   -0.194078  -0.000858
    45  C   -0.353069   0.001113
    46  C    0.325555   0.000231
    47  O   -0.284012   0.000083
    48  O   -0.362747   0.000095
    49  N   -0.069000   0.050805
    50  N   -0.063237   0.046714
    51  N   -0.076810   0.049547
    52  N    0.000672   0.040126
    53  Fe  -0.119444   4.363875
    54  H    0.165852   0.001642
    55  H    0.157412   0.001297
    56  H    0.159203   0.002954
    57  H    0.087127   0.003609
    58  H    0.151384   0.000026
    59  H    0.148669   0.000085
    60  H    0.149466  -0.000104
    61  H    0.131115   0.001155
    62  H    0.158034   0.000976
    63  H    0.184366   0.000598
    64  H    0.245521   0.001485
    65  H    0.155876   0.000060
    66  H    0.158052   0.000103
    67  H    0.129823   0.000158
    68  H    0.343215  -0.000004
    69  H    0.181399  -0.000014
    70  H    0.134012  -0.000077
    71  H    0.132531   0.000399
    72  H    0.139878   0.000401
    73  H    0.130838  -0.000002
    74  H    0.159464   0.000681
    75  H    0.152194   0.000921
    76  H    0.136584   0.000701
    77  H    0.116085   0.000836
    78  H    0.113669   0.000680
    79  H    0.134680   0.000170
    80  H    0.077851   0.000008
    81  H    0.118726  -0.000041
    82  H    0.131191   0.000060
    83  H    0.148622   0.000840
    84  H    0.151079   0.000676
    85  H    0.121934   0.000512
    86  H    0.114916   0.000961
    87  H    0.105045   0.000550
    88  H    0.118107  -0.000048
    89  H    0.136748   0.000221
    90  H    0.103893   0.000006
    91  H    0.152056   0.000502
    92  H    0.121744  -0.000009
    93  H    0.160646   0.000605
    94  H    0.117705   0.000523
    95  H    0.144389   0.000445
    96  H    0.138012   0.000399
    97  H    0.155653   0.000765
    98  H    0.139629   0.000638
    99  H    0.142591   0.000552
   100  H    0.128865   0.000008
   101  H    0.146660   0.000169
   102  H    0.102915  -0.000044
   103  H    0.352781   0.000105
 Sum of Mulliken charges =   1.00000   5.00000

 Dipole moment (field-independent basis, Debye):
    X=            -10.5180    Y=             -2.7656    Z=              1.5909  Tot=             10.9913
 Quadrupole moment (field-independent basis, Debye-Ang):
   XX=           -314.8346   YY=           -251.1019   ZZ=           -262.2179
   XY=            -24.2592   XZ=            -14.6680   YZ=             -0.9664

 Summary of Natural Population Analysis:

                                       Natural Population
                Natural  -----------------------------------------------
    Atom  No    Charge         Core      Valence    Rydberg      Total
 -----------------------------------------------------------------------
      C    1   -0.32099      0.99970     2.31785    0.00345     3.32099
      C    2    0.06502      0.99954     1.92662    0.00882     2.93498
      N    3   -0.23056      0.99968     2.72122    0.00966     3.73056
      C    4   -0.03455      0.99942     2.02637    0.00877     3.03455
      C    5    0.10522      0.99964     1.88434    0.01080     2.89478
      N    6   -0.15744      0.99972     2.63441    0.02331     3.65744
      C    7   -0.30973      0.99972     2.30591    0.00411     3.30973
      C    8   -0.26314      0.99966     2.25451    0.00896     3.26314
      S    9    0.33483      4.99921     2.64347    0.02249     7.66517
      C   10   -0.37869      0.99963     2.37066    0.00840     3.37869
      C   11   -0.11653      0.99952     2.10970    0.00731     3.11653
      C   12   -0.11910      0.99947     2.11172    0.00791     3.11910
      C   13   -0.12002      0.99948     2.11296    0.00758     3.12002
      C   14   -0.11669      0.99937     2.10883    0.00849     3.11669
      C   15    0.09133      0.99952     1.89925    0.00990     2.90867
      C   16   -0.00939      0.99945     1.99994    0.01000     3.00939
      C   17    0.00796      0.99929     1.98210    0.01065     2.99204
      C   18    0.07399      0.99949     1.91595    0.01056     2.92601
      C   19   -0.32126      0.99969     2.31791    0.00365     3.32126
      C   20   -0.20908      0.99965     2.20230    0.00713     3.20908
      C   21   -0.25513      0.99962     2.24718    0.00833     3.25513
      C   22    0.39252      0.99974     1.58988    0.01786     2.60748
      O   23   -0.33787      0.99977     3.32249    0.01561     4.33787
      O   24   -0.29081      0.99989     3.27926    0.01166     4.29081
      C   25    0.08290      0.99947     1.90753    0.01010     2.91710
      C   26   -0.00092      0.99946     1.99338    0.00809     3.00092
      C   27    0.01650      0.99934     1.97304    0.01112     2.98350
      C   28    0.09590      0.99953     1.89461    0.00995     2.90410
      C   29   -0.31538      0.99968     2.31176    0.00394     3.31538
      C   30   -0.22681      0.99961     2.21992    0.00727     3.22681
      C   31   -0.28747      0.99968     2.28036    0.00742     3.28747
      C   32    0.09334      0.99950     1.89718    0.00997     2.90666
      C   33    0.00504      0.99949     1.98779    0.00768     2.99496
      C   34    0.01464      0.99936     1.97496    0.01104     2.98536
      C   35    0.09033      0.99954     1.89994    0.01019     2.90967
      C   36   -0.31312      0.99967     2.30968    0.00377     3.31312
      C   37   -0.22847      0.99962     2.22149    0.00736     3.22847
      C   38   -0.29208      0.99968     2.28532    0.00709     3.29208
      C   39    0.09411      0.99951     1.89597    0.01041     2.90589
      C   40    0.00493      0.99941     1.98769    0.00797     2.99507
      C   41    0.01314      0.99944     1.97865    0.00878     2.98686
      C   42    0.09310      0.99952     1.89765    0.00972     2.90690
      C   43   -0.31786      0.99969     2.31451    0.00366     3.31786
      C   44   -0.21237      0.99967     2.20493    0.00776     3.21237
      C   45   -0.25951      0.99963     2.25136    0.00852     3.25951
      C   46    0.38258      0.99975     1.60095    0.01672     2.61742
      O   47   -0.31047      0.99981     3.29556    0.01510     4.31047
      O   48   -0.29136      0.99990     3.27966    0.01181     4.29136
      N   49   -0.19920      0.99969     2.67929    0.02021     3.69920
      N   50   -0.19212      0.99972     2.67216    0.02023     3.69212
      N   51   -0.19453      0.99971     2.67416    0.02065     3.69453
      N   52   -0.19569      0.99969     2.67523    0.02078     3.69569
     Fe   53    2.31820      8.99534     1.64149    0.04497    10.68180
      H   54    0.12080      0.00000     0.37869    0.00051     0.37920
      H   55    0.11909      0.00000     0.38005    0.00086     0.38091
      H   56    0.12403      0.00000     0.37503    0.00094     0.37597
      H   57    0.10965      0.00000     0.38892    0.00143     0.39035
      H   58    0.12160      0.00000     0.37755    0.00085     0.37840
      H   59    0.10813      0.00000     0.39103    0.00083     0.39187
      H   60    0.11520      0.00000     0.38422    0.00058     0.38480
      H   61    0.10624      0.00000     0.39315    0.00061     0.39376
      H   62    0.11825      0.00000     0.38102    0.00073     0.38175
      H   63    0.11620      0.00000     0.38303    0.00076     0.38380
      H   64    0.21267      0.00000     0.28653    0.00080     0.28733
      H   65    0.11940      0.00000     0.38001    0.00059     0.38060
      H   66    0.11898      0.00000     0.38038    0.00064     0.38102
      H   67    0.11185      0.00000     0.38757    0.00058     0.38815
      H   68    0.25049      0.00000     0.24854    0.00096     0.24951
      H   69    0.12272      0.00000     0.37665    0.00063     0.37728
      H   70    0.10658      0.00000     0.39265    0.00078     0.39342
      H   71    0.11550      0.00000     0.38378    0.00072     0.38450
      H   72    0.12307      0.00000     0.37617    0.00076     0.37693
      H   73    0.10970      0.00000     0.38976    0.00055     0.39030
      H   74    0.11783      0.00000     0.38146    0.00071     0.38217
      H   75    0.11622      0.00000     0.38311    0.00067     0.38378
      H   76    0.11473      0.00000     0.38400    0.00127     0.38527
      H   77    0.11156      0.00000     0.38742    0.00102     0.38844
      H   78    0.11183      0.00000     0.38718    0.00100     0.38817
      H   79    0.11023      0.00000     0.38924    0.00053     0.38977
      H   80    0.09959      0.00000     0.39966    0.00075     0.40041
      H   81    0.10439      0.00000     0.39500    0.00061     0.39561
      H   82    0.10881      0.00000     0.39056    0.00063     0.39119
      H   83    0.11666      0.00000     0.38262    0.00072     0.38334
      H   84    0.11218      0.00000     0.38707    0.00075     0.38782
      H   85    0.11324      0.00000     0.38546    0.00130     0.38676
      H   86    0.11272      0.00000     0.38614    0.00114     0.38728
      H   87    0.10948      0.00000     0.38948    0.00104     0.39052
      H   88    0.10378      0.00000     0.39553    0.00069     0.39622
      H   89    0.11113      0.00000     0.38834    0.00053     0.38887
      H   90    0.09838      0.00000     0.40094    0.00068     0.40162
      H   91    0.11539      0.00000     0.38384    0.00077     0.38461
      H   92    0.10514      0.00000     0.39421    0.00065     0.39486
      H   93    0.11328      0.00000     0.38598    0.00074     0.38672
      H   94    0.11350      0.00000     0.38501    0.00150     0.38650
      H   95    0.11298      0.00000     0.38635    0.00067     0.38702
      H   96    0.11203      0.00000     0.38718    0.00079     0.38797
      H   97    0.11660      0.00000     0.38267    0.00073     0.38340
      H   98    0.11858      0.00000     0.38017    0.00124     0.38142
      H   99    0.11632      0.00000     0.38295    0.00073     0.38368
      H  100    0.11668      0.00000     0.38256    0.00076     0.38332
      H  101    0.12644      0.00000     0.37298    0.00058     0.37356
      H  102    0.10299      0.00000     0.39623    0.00078     0.39701
      H  103    0.25998      0.00000     0.23903    0.00099     0.24002
 =======================================================================
   * Total *    3.00006     64.97397   137.39816    0.62781   202.99994

 Normal termination of Gaussian 16 at Fri Sep  9 00:22:05 2022.
