 Gaussian 16, Revision A.03,

 ---------------------------------------------------------------------
 # polar def2tzvp empiricaldispersion=gd3bj int=grid=ultrafine pbe1pbe
 ---------------------------------------------------------------------

 ---------
 1drm_II_S
 ---------
 Symbolic Z-matrix:
 Charge =  0 Multiplicity = 1

 SCF Done:  E(RPBE1PBE) =  -3361.97605911     A.U. after   25 cycles

  Exact polarizability: 849.548 -25.717 743.057  53.292  22.586 368.564
 Approx polarizability:1487.239 -76.5901343.448 120.847  81.140 602.555

 Normal termination of Gaussian 16 at Sat Jan  7 14:14:26 2023.
 Gaussian 16:  ES64L-G16RevA.03 25-Dec-2016

 ----------------------------------------------------------------------
 # PBE1PBE/def2TZVP empiricaldispersion=GD3BJ int=(grid=ultrafine) geom
 =check guess=read pop=nbo scf=qc
 ----------------------------------------------------------------------

 -------------
 1drm_II_S_nbo
 -------------
 Structure from the checkpoint file:  "1drm_II_S.chk"
 Charge =  0 Multiplicity = 1

                         Standard orientation:
 ---------------------------------------------------------------------
 Center     Atomic      Atomic             Coordinates (Angstroms)
 Number     Number       Type             X           Y           Z
 ---------------------------------------------------------------------
      1          6           0       -1.125983   -1.908213    5.402037
      2          6           0       -1.269752   -1.122076    4.118040
      3          7           0       -1.819874    0.142104    4.037763
      4          6           0       -0.874797   -1.422264    2.852370
      5          6           0       -1.739039    0.573139    2.761111
      6          7           0       -1.175562   -0.331450    1.977358
      7         26           0       -0.931035   -0.046217   -0.116740
      8          6           0        2.492034    0.696816    0.075383
      9          6           0       -0.351158   -3.419378   -0.574439
     10          6           0       -4.124527   -0.640162   -1.139055
     11          6           0       -1.598265    3.393057    0.141444
     12          7           0        0.680677   -1.181420   -0.203990
     13          6           0        2.074120   -0.657094   -0.110764
     14          6           0        2.931790   -1.775513   -0.296105
     15          6           0        2.115560   -2.898610   -0.463148
     16          6           0        0.770973   -2.519589   -0.404455
     17          6           0        2.545178   -4.395272   -0.740746
     18          6           0        4.453702   -1.587943   -0.530953
     19          6           0        5.170883   -2.575879    0.091395
     20          6           0        6.542434   -2.608838   -0.435701
     21          8           0        7.407657   -2.515192    0.504849
     22          8           0        6.757819   -2.755088   -1.696621
     23          7           0       -2.025127   -1.592888   -0.626421
     24          6           0       -1.574354   -3.013864   -0.734992
     25          6           0       -2.643312   -3.899302   -0.935963
     26          6           0       -3.730789   -3.187039   -1.123588
     27          6           0       -3.389162   -1.714752   -0.936710
     28          6           0       -2.567728   -5.426915   -0.982053
     29          6           0       -5.053846   -3.882633   -1.401851
     30          6           0       -6.280339   -2.964675   -1.125465
     31          7           0       -2.460740    1.047362   -0.418464
     32          6           0       -3.696922    0.654115   -0.878076
     33          6           0       -4.548552    1.830321   -1.062745
     34          6           0       -3.852821    2.874045   -0.755077
     35          6           0       -2.590385    2.447916   -0.351448
     36          6           0       -6.066029    1.776879   -1.589619
     37          6           0       -4.077295    4.438701   -0.929225
     38          6           0       -5.528216    4.744877   -0.920005
     39          7           0        0.020639    1.606926    0.095710
     40          6           0       -0.380043    3.024684    0.238244
     41          6           0        0.783932    3.928505    0.481487
     42          6           0        1.868835    3.187644    0.550078
     43          6           0        1.494892    1.805878    0.256823
     44          6           0        0.749469    5.377693    0.683040
     45          6           0        3.413067    3.490932    0.888990
     46          6           0        4.244181    3.758784   -0.418572
     47          6           0        5.535184    3.547497   -1.109523
     48          8           0        5.381125    3.835691   -2.292042
     49          8           0        6.156326    2.557024   -0.744689
     50          1           0       -1.430114   -2.920612    5.236351
     51          1           0       -0.104117   -1.890075    5.718834
     52          1           0       -1.742004   -1.470135    6.159339
     53          1           0       -2.213791    0.654527    4.800818
     54          1           0       -2.087282    1.527424    2.425005
     55          1           0       -0.408373   -2.338185    2.554986
     56          1           0        7.422914   -3.166825    1.209648
     57          1           0        4.700282   -3.520579   -0.084604
     58          1           0        5.199637   -2.384304    1.143712
     59          1           0        4.653383   -1.617533   -1.581739
     60          1           0        4.754665   -0.637420   -0.142588
     61          1           0        5.782693    1.682033   -0.872711
     62          1           0        3.572109    3.364849   -1.152080
     63          1           0        4.177127    4.825523   -0.468300
     64          1           0        3.830252    2.650138    1.402724
     65          1           0        3.469866    4.351585    1.522195
     66          1           0       -0.247144    5.680058    0.928471
     67          1           0        1.409582    5.642407    1.482463
     68          1           0        1.060775    5.870120   -0.214460
     69          1           0        3.537261    0.925496    0.085754
     70          1           0        1.949958   -4.795811   -1.534585
     71          1           0        3.577769   -4.424042   -1.019723
     72          1           0        2.398448   -4.978464    0.144272
     73          1           0       -0.162578   -4.472605   -0.567367
     74          1           0       -1.887247    4.385113    0.419320
     75          1           0       -5.112131   -0.773686   -1.528554
     76          1           0       -6.499603    0.832886   -1.333120
     77          1           0       -6.629747    2.563905   -1.133865
     78          1           0       -6.078984    1.898267   -2.652632
     79          1           0       -6.225778    4.042641   -1.326420
     80          1           0       -5.877578    5.668035   -0.506938
     81          1           0       -3.297184    5.163063   -1.037052
     82          1           0       -3.168134   -5.789507   -1.790100
     83          1           0       -1.551940   -5.729494   -1.128751
     84          1           0       -2.930257   -5.829951   -0.059538
     85          1           0       -7.264193   -3.292643   -1.388846
     86          1           0       -6.139517   -2.005750   -0.672110
     87          1           0       -5.133137   -4.891559   -1.749241
 ---------------------------------------------------------------------

 SCF Done:  E(RPBE1PBE) =  -3361.97605911     a.u. after    1 cycles

 The electronic state is 1-A.
 Alpha  occ. eigenvalues -- -256.32722 -30.09679 -25.92607 -25.92184 -25.91905
 Alpha  occ. eigenvalues --  -19.26439 -19.24247 -19.19648 -19.18247 -14.45964
 Alpha  occ. eigenvalues --  -14.41300 -14.39393 -14.38689 -14.38560 -14.37542
 Alpha  occ. eigenvalues --  -10.36326 -10.35117 -10.29478 -10.27759 -10.26839
 Alpha  occ. eigenvalues --  -10.26480 -10.26181 -10.25438 -10.25358 -10.25054
 Alpha  occ. eigenvalues --  -10.24853 -10.24821 -10.24799 -10.24495 -10.24492
 Alpha  occ. eigenvalues --  -10.24385 -10.24215 -10.24040 -10.23994 -10.23344
 Alpha  occ. eigenvalues --  -10.23283 -10.23019 -10.22848 -10.22445 -10.22325
 Alpha  occ. eigenvalues --  -10.22148 -10.22089 -10.22064 -10.22006 -10.21812
 Alpha  occ. eigenvalues --  -10.21758 -10.21753 -10.21692 -10.21648 -10.21590
 Alpha  occ. eigenvalues --  -10.21552 -10.21505 -10.21002  -3.44442  -2.20685
 Alpha  occ. eigenvalues --   -2.19829  -2.19357  -1.17618  -1.15979  -1.06455
 Alpha  occ. eigenvalues --   -1.04171  -1.02434  -0.97699  -0.95670  -0.94613
 Alpha  occ. eigenvalues --   -0.93320  -0.91558  -0.86749  -0.84523  -0.83265
 Alpha  occ. eigenvalues --   -0.82340  -0.82221  -0.81905  -0.81382  -0.80048
 Alpha  occ. eigenvalues --   -0.79050  -0.78460  -0.76510  -0.75279  -0.74916
 Alpha  occ. eigenvalues --   -0.73875  -0.73703  -0.72597  -0.72349  -0.71423
 Alpha  occ. eigenvalues --   -0.70208  -0.69887  -0.68865  -0.67170  -0.66704
 Alpha  occ. eigenvalues --   -0.65661  -0.65426  -0.64193  -0.62975  -0.62691
 Alpha  occ. eigenvalues --   -0.61218  -0.59467  -0.57518  -0.57044  -0.56707
 Alpha  occ. eigenvalues --   -0.55567  -0.55039  -0.54451  -0.53628  -0.52806
 Alpha  occ. eigenvalues --   -0.52450  -0.52313  -0.51271  -0.50960  -0.50508
 Alpha  occ. eigenvalues --   -0.49769  -0.49076  -0.48785  -0.48673  -0.48537
 Alpha  occ. eigenvalues --   -0.48370  -0.47769  -0.47368  -0.47073  -0.46275
 Alpha  occ. eigenvalues --   -0.45718  -0.45348  -0.45108  -0.45002  -0.44545
 Alpha  occ. eigenvalues --   -0.44354  -0.44225  -0.44145  -0.43942  -0.43859
 Alpha  occ. eigenvalues --   -0.43548  -0.43368  -0.42885  -0.42656  -0.42528
 Alpha  occ. eigenvalues --   -0.42213  -0.41884  -0.41129  -0.40918  -0.40645
 Alpha  occ. eigenvalues --   -0.40338  -0.40046  -0.39741  -0.39250  -0.38973
 Alpha  occ. eigenvalues --   -0.38872  -0.38487  -0.38237  -0.38117  -0.37961
 Alpha  occ. eigenvalues --   -0.37261  -0.36993  -0.36746  -0.36264  -0.35520
 Alpha  occ. eigenvalues --   -0.35338  -0.34875  -0.34074  -0.33981  -0.33546
 Alpha  occ. eigenvalues --   -0.33016  -0.32832  -0.32761  -0.32214  -0.31918
 Alpha  occ. eigenvalues --   -0.30884  -0.30615  -0.30153  -0.29489  -0.28908
 Alpha  occ. eigenvalues --   -0.28755  -0.28250  -0.27076  -0.26313  -0.25379
 Alpha  occ. eigenvalues --   -0.24716  -0.23615  -0.22333  -0.21399  -0.20652
 Alpha  occ. eigenvalues --   -0.19444  -0.19234  -0.18015
 Alpha virt. eigenvalues --   -0.08556  -0.06831  -0.05168  -0.04357  -0.03704
 Alpha virt. eigenvalues --   -0.02729  -0.02662   0.00078   0.01127   0.01870
 Alpha virt. eigenvalues --    0.01969   0.02342   0.03096   0.03699   0.04037

 Mulliken charges:
               1
     1  C   -0.360570
     2  C    0.148808
     3  N   -0.221887
     4  C   -0.213888
     5  C    0.021974
     6  N   -0.010110
     7  Fe  -0.176222
     8  C   -0.459536
     9  C   -0.525466
    10  C   -0.481730
    11  C   -0.516401
    12  N   -0.019332
    13  C    0.267015
    14  C   -0.089673
    15  C   -0.014362
    16  C    0.164614
    17  C   -0.402329
    18  C   -0.250580
    19  C   -0.194166
    20  C    0.365260
    21  O   -0.356970
    22  O   -0.366358
    23  N   -0.044083
    24  C    0.315241
    25  C   -0.077035
    26  C    0.058006
    27  C    0.209409
    28  C   -0.402252
    29  C   -0.194969
    30  C   -0.330820
    31  N   -0.025769
    32  C    0.279077
    33  C   -0.094274
    34  C   -0.002958
    35  C    0.243637
    36  C   -0.368620
    37  C   -0.208412
    38  C   -0.289565
    39  N   -0.035803
    40  C    0.303987
    41  C   -0.039634
    42  C   -0.082091
    43  C    0.218685
    44  C   -0.424930
    45  C   -0.118243
    46  C   -0.437652
    47  C    0.298098
    48  O   -0.285807
    49  O   -0.334543
    50  H    0.151058
    51  H    0.148984
    52  H    0.123110
    53  H    0.233755
    54  H    0.172017
    55  H    0.141428
    56  H    0.354821
    57  H    0.106185
    58  H    0.099264
    59  H    0.145481
    60  H    0.061521
    61  H    0.353949
    62  H    0.194044
    63  H    0.127415
    64  H    0.134292
    65  H    0.125153
    66  H    0.119659
    67  H    0.130737
    68  H    0.154902
    69  H    0.041901
    70  H    0.143567
    71  H    0.137192
    72  H    0.131768
    73  H    0.123730
    74  H    0.133446
    75  H    0.132695
    76  H    0.118330
    77  H    0.113897
    78  H    0.150911
    79  H    0.138015
    80  H    0.131381
    81  H    0.157975
    82  H    0.132559
    83  H    0.123015
    84  H    0.152325
    85  H    0.133848
    86  H    0.152117
    87  H    0.136780
 Sum of Mulliken charges =  -0.00000

 Dipole moment (field-independent basis, Debye):
    X=             -4.3367    Y=             -2.7714    Z=             11.8023  Tot=             12.8756
 Quadrupole moment (field-independent basis, Debye-Ang):
   XX=           -311.4339   YY=           -265.5156   ZZ=           -277.1071
   XY=            -15.9704   XZ=             30.1766   YZ=              4.2492

 Summary of Natural Population Analysis:

                                       Natural Population
                Natural  -----------------------------------------------
    Atom  No    Charge         Core      Valence    Rydberg      Total
 -----------------------------------------------------------------------
      C    1   -0.63734      1.99938     4.63157    0.00639     6.63734
      C    2    0.09852      1.99906     3.88388    0.01854     5.90148
      N    3   -0.49436      1.99939     5.47487    0.02009     7.49436
      C    4   -0.08107      1.99888     4.06430    0.01789     6.08107
      C    5    0.19906      1.99940     3.78281    0.01873     5.80094
      N    6   -0.34337      1.99939     5.30274    0.04123     7.34337
     Fe    7    0.43256     17.98517     7.55616    0.02612    25.56744
      C    8   -0.23675      1.99909     4.22690    0.01075     6.23675
      C    9   -0.22926      1.99872     4.21362    0.01691     6.22926
      C   10   -0.25428      1.99875     4.23763    0.01790     6.25428
      C   11   -0.24707      1.99854     4.23082    0.01771     6.24707
      N   12   -0.41044      1.99936     5.37158    0.03950     7.41044
      C   13    0.13186      1.99895     3.84965    0.01954     5.86814
      C   14   -0.05036      1.99883     4.03199    0.01954     6.05036
      C   15   -0.03591      1.99879     4.02007    0.01704     6.03591
      C   16    0.13997      1.99900     3.84053    0.02050     5.86003
      C   17   -0.63441      1.99938     4.62811    0.00692     6.63441
      C   18   -0.41022      1.99912     4.39379    0.01731     6.41022
      C   19   -0.52787      1.99904     4.50742    0.02142     6.52787
      C   20    0.78182      1.99934     3.18614    0.03270     5.21818
      O   21   -0.68132      1.99963     6.65344    0.02825     8.68132
      O   22   -0.56648      1.99981     6.54567    0.02100     8.56648
      N   23   -0.38332      1.99943     5.34626    0.03762     7.38332
      C   24    0.13126      1.99854     3.85049    0.01971     5.86874
      C   25   -0.01701      1.99854     4.00015    0.01832     6.01701
      C   26   -0.07364      1.99858     4.05394    0.02113     6.07364
      C   27    0.16848      1.99889     3.81270    0.01993     5.83152
      C   28   -0.62921      1.99940     4.62232    0.00749     6.62921
      C   29   -0.19042      1.99943     4.17876    0.01223     6.19042
      C   30   -0.39236      1.99951     4.38268    0.01017     6.39236
      N   31   -0.39896      1.99931     5.35948    0.04017     7.39896
      C   32    0.16462      1.99910     3.81644    0.01984     5.83538
      C   33   -0.02222      1.99839     4.00487    0.01896     6.02222
      C   34   -0.11096      1.99821     4.08986    0.02289     6.11096
      C   35    0.16230      1.99898     3.81810    0.02063     5.83770
      C   36   -0.62389      1.99936     4.61740    0.00714     6.62389
      C   37   -0.18801      1.99944     4.17577    0.01280     6.18801
      C   38   -0.37526      1.99948     4.36473    0.01104     6.37526
      N   39   -0.40458      1.99943     5.36895    0.03620     7.40458
      C   40    0.13691      1.99857     3.84319    0.02132     5.86309
      C   41   -0.02940      1.99870     4.01263    0.01807     6.02940
      C   42   -0.04311      1.99848     4.02527    0.01936     6.04311
      C   43    0.17030      1.99916     3.81179    0.01875     5.82970
      C   44   -0.63613      1.99937     4.62323    0.01352     6.63613
      C   45   -0.40572      1.99926     4.39595    0.01050     6.40572
      C   46   -0.55991      1.99906     4.53949    0.02135     6.55991
      C   47    0.77122      1.99903     3.19070    0.03905     5.22878
      O   48   -0.52171      1.99977     6.49678    0.02517     8.52171
      O   49   -0.70012      1.99951     6.66915    0.03147     8.70012
      H   50    0.23478      0.00000     0.76414    0.00107     0.76522
      H   51    0.22963      0.00000     0.76910    0.00127     0.77037
      H   52    0.21698      0.00000     0.78180    0.00123     0.78302
      H   53    0.41633      0.00000     0.58199    0.00169     0.58367
      H   54    0.22446      0.00000     0.77377    0.00177     0.77554
      H   55    0.22612      0.00000     0.77258    0.00130     0.77388
      H   56    0.51321      0.00000     0.48477    0.00202     0.48679
      H   57    0.24162      0.00000     0.75677    0.00161     0.75838
      H   58    0.20689      0.00000     0.79175    0.00136     0.79311
      H   59    0.24734      0.00000     0.75098    0.00168     0.75266
      H   60    0.19034      0.00000     0.80742    0.00224     0.80966
      H   61    0.52501      0.00000     0.47265    0.00234     0.47499
      H   62    0.24878      0.00000     0.74901    0.00222     0.75122
      H   63    0.22865      0.00000     0.77000    0.00135     0.77135
      H   64    0.20962      0.00000     0.78749    0.00289     0.79038
      H   65    0.21342      0.00000     0.78481    0.00176     0.78658
      H   66    0.21466      0.00000     0.78436    0.00098     0.78534
      H   67    0.22367      0.00000     0.77486    0.00147     0.77633
      H   68    0.23020      0.00000     0.76825    0.00155     0.76980
      H   69    0.20176      0.00000     0.79479    0.00345     0.79824
      H   70    0.22269      0.00000     0.77582    0.00148     0.77731
      H   71    0.21056      0.00000     0.78798    0.00147     0.78944
      H   72    0.21365      0.00000     0.78479    0.00156     0.78635
      H   73    0.21477      0.00000     0.78238    0.00285     0.78523
      H   74    0.22276      0.00000     0.77426    0.00298     0.77724
      H   75    0.22621      0.00000     0.77134    0.00245     0.77379
      H   76    0.21390      0.00000     0.78482    0.00128     0.78610
      H   77    0.20737      0.00000     0.79089    0.00174     0.79263
      H   78    0.22192      0.00000     0.77652    0.00156     0.77808
      H   79    0.18827      0.00000     0.80998    0.00175     0.81173
      H   80    0.19191      0.00000     0.80654    0.00155     0.80809
      H   81    0.21926      0.00000     0.77905    0.00168     0.78074
      H   82    0.22051      0.00000     0.77788    0.00161     0.77949
      H   83    0.21567      0.00000     0.78304    0.00129     0.78433
      H   84    0.22552      0.00000     0.77295    0.00153     0.77448
      H   85    0.19175      0.00000     0.80686    0.00139     0.80825
      H   86    0.19237      0.00000     0.80575    0.00188     0.80763
      H   87    0.21503      0.00000     0.78310    0.00186     0.78497
 =======================================================================
   * Total *   -0.00000    113.94196   250.98005    1.07799   366.00000

 Normal termination of Gaussian 16 at Sat Jan  7 14:44:13 2023.
