 Gaussian 16, Revision A.03,

 ----------------------------------------------------------------------
 # PBE1PBE/def2TZVP empiricaldispersion=GD3BJ scf=maxcycle=999 geom=che
 ck pop=nbo
 ----------------------------------------------------------------------

 ----------
 451c_III_H
 ----------
 Structure from the checkpoint file:  "451c_III_H.chk"
 Charge =  1 Multiplicity = 6

 SCF Done:  E(UPBE1PBE) =  -3879.15074287     A.U. after   45 cycles

 Summary of Natural Population Analysis:

                                       Natural Population
                Natural  -----------------------------------------------
    Atom  No    Charge         Core      Valence    Rydberg      Total
 -----------------------------------------------------------------------
      C    1   -0.31996      0.99970     2.31693    0.00334     3.31996
      C    2    0.07005      0.99959     1.92143    0.00894     2.92995
      N    3   -0.22918      0.99968     2.72014    0.00935     3.72918
      C    4   -0.02826      0.99947     2.01979    0.00900     3.02826
      C    5    0.10733      0.99965     1.88277    0.01025     2.89267
      N    6   -0.16406      0.99970     2.64169    0.02267     3.66406
      C    7   -0.31053      0.99973     2.30479    0.00601     3.31053
      C    8   -0.25935      0.99963     2.25065    0.00907     3.25935
      S    9    0.33479      4.99902     2.64385    0.02234     7.66521
      C   10   -0.36572      0.99963     2.35737    0.00873     3.36572
      C   11   -0.11591      0.99949     2.10804    0.00839     3.11591
      C   12   -0.09354      0.99949     2.08640    0.00765     3.09354
      C   13   -0.08987      0.99937     2.08210    0.00840     3.08987
      C   14   -0.10046      0.99948     2.09323    0.00775     3.10046
      C   15    0.07237      0.99943     1.91794    0.01026     2.92763
      C   16    0.00102      0.99944     1.98977    0.00977     2.99898
      C   17    0.01416      0.99926     1.97559    0.01099     2.98584
      C   18    0.06722      0.99943     1.92249    0.01086     2.93278
      C   19   -0.32204      0.99971     2.31878    0.00355     3.32204
      C   20   -0.21286      0.99967     2.20520    0.00799     3.21286
      C   21   -0.24744      0.99962     2.23940    0.00842     3.24744
      C   22    0.37538      0.99975     1.60706    0.01781     2.62462
      O   23   -0.27979      0.99988     3.26708    0.01283     4.27979
      O   24   -0.33683      0.99984     3.32390    0.01309     4.33683
      C   25    0.07588      0.99944     1.91433    0.01034     2.92412
      C   26    0.01966      0.99945     1.97260    0.00829     2.98034
      C   27   -0.02867      0.99942     2.01872    0.01053     3.02867
      C   28    0.07975      0.99946     1.91018    0.01061     2.92025
      C   29   -0.31801      0.99970     2.31209    0.00623     3.31801
      C   30   -0.11419      0.99972     2.10783    0.00664     3.11419
      C   31   -0.16676      0.99975     2.16228    0.00474     3.16676
      C   32    0.07340      0.99945     1.91648    0.01067     2.92660
      C   33    0.01899      0.99943     1.97332    0.00826     2.98101
      C   34   -0.02521      0.99937     2.01523    0.01062     3.02521
      C   35    0.07709      0.99941     1.91287    0.01062     2.92291
      C   36   -0.31713      0.99970     2.31127    0.00616     3.31713
      C   37   -0.06706      0.99972     2.06075    0.00659     3.06706
      C   38   -0.19888      0.99975     2.19409    0.00503     3.19888
      C   39    0.07958      0.99943     1.91020    0.01080     2.92042
      C   40    0.01143      0.99943     1.98095    0.00818     2.98857
      C   41    0.00579      0.99944     1.98583    0.00894     2.99421
      C   42    0.07878      0.99944     1.91166    0.01012     2.92122
      C   43   -0.31959      0.99970     2.31369    0.00620     3.31959
      C   44   -0.21325      0.99967     2.20620    0.00738     3.21325
      C   45   -0.24219      0.99962     2.23437    0.00820     3.24219
      C   46    0.37700      0.99977     1.60602    0.01720     2.62300
      O   47   -0.31310      0.99979     3.29945    0.01386     4.31310
      O   48   -0.31783      0.99992     3.30790    0.01001     4.31783
      N   49   -0.18199      0.99969     2.65986    0.02244     3.68199
      N   50   -0.18010      0.99969     2.65855    0.02186     3.68010
      N   51   -0.17868      0.99968     2.65708    0.02192     3.67868
      N   52   -0.18376      0.99968     2.66260    0.02148     3.68376
     Fe   53    2.26798      8.99578     1.68564    0.05060    10.73202
      H   54    0.10990      0.00000     0.38912    0.00098     0.39010
      H   55    0.11888      0.00000     0.38058    0.00054     0.38112
      H   56    0.12625      0.00000     0.37322    0.00053     0.37375
      H   57    0.11164      0.00000     0.38766    0.00070     0.38836
      H   58    0.11187      0.00000     0.38763    0.00050     0.38813
      H   59    0.10257      0.00000     0.39635    0.00108     0.39743
      H   60    0.11693      0.00000     0.38244    0.00063     0.38307
      H   61    0.12318      0.00000     0.37607    0.00075     0.37682
      H   62    0.11834      0.00000     0.38099    0.00067     0.38166
      H   63    0.10942      0.00000     0.39018    0.00040     0.39058
      H   64    0.11389      0.00000     0.38545    0.00066     0.38611
      H   65    0.11649      0.00000     0.38220    0.00131     0.38351
      H   66    0.10627      0.00000     0.39332    0.00041     0.39373
      H   67    0.11954      0.00000     0.37983    0.00063     0.38046
      H   68    0.11810      0.00000     0.38130    0.00060     0.38190
      H   69    0.11363      0.00000     0.38497    0.00140     0.38637
      H   70    0.11468      0.00000     0.38463    0.00069     0.38532
      H   71    0.11455      0.00000     0.38473    0.00072     0.38545
      H   72    0.11417      0.00000     0.38511    0.00072     0.38583
      H   73    0.11293      0.00000     0.38609    0.00098     0.38707
      H   74    0.12001      0.00000     0.37927    0.00072     0.37999
      H   75    0.11043      0.00000     0.38887    0.00069     0.38957
      H   76    0.12160      0.00000     0.37771    0.00069     0.37840
      H   77    0.25577      0.00000     0.24298    0.00125     0.24423
      H   78    0.26053      0.00000     0.23805    0.00142     0.23947
      H   79    0.12325      0.00000     0.37611    0.00064     0.37675
      H   80    0.10802      0.00000     0.39123    0.00075     0.39198
      H   81    0.12497      0.00000     0.37433    0.00071     0.37503
      H   82    0.11017      0.00000     0.38880    0.00103     0.38983
      H   83    0.11827      0.00000     0.38111    0.00063     0.38173
      H   84    0.10991      0.00000     0.38966    0.00043     0.39009
      H   85    0.11623      0.00000     0.38319    0.00058     0.38377
      H   86    0.11398      0.00000     0.38497    0.00106     0.38602
      H   87    0.11695      0.00000     0.38166    0.00139     0.38305
      H   88    0.09992      0.00000     0.39933    0.00075     0.40008
      H   89    0.10120      0.00000     0.39811    0.00069     0.39880
      H   90    0.11104      0.00000     0.38810    0.00086     0.38896
      H   91    0.10377      0.00000     0.39550    0.00073     0.39623
      H   92    0.09975      0.00000     0.39929    0.00096     0.40025
      H   93    0.11150      0.00000     0.38762    0.00088     0.38850
      H   94    0.11114      0.00000     0.38829    0.00057     0.38886
      H   95    0.11897      0.00000     0.38041    0.00061     0.38103
      H   96    0.11937      0.00000     0.38005    0.00058     0.38063
      H   97    0.12066      0.00000     0.37861    0.00074     0.37934
      H   98    0.21641      0.00000     0.28278    0.00081     0.28359
      H   99    0.11755      0.00000     0.38165    0.00079     0.38245
 =======================================================================
   * Total *    3.00002     64.97417   135.38798    0.63783   200.99998

 Normal termination of Gaussian 16 at Sun Feb 19 20:46:11 2023.
 Gaussian 16:  ES64L-G16RevA.03 25-Dec-2016

 ----------------------------------------------------------------------
 # PBE1PBE/def2TZVP empiricaldispersion=GD3BJ int=(grid=ultrafine) geom
 =check guess=read scrf=(smd,solvent=Chloroform)
 ----------------------------------------------------------------------

 ---------------
 451c_III_H_solv
 ---------------
 Structure from the checkpoint file:  "451c_III_H.chk"
 Charge =  1 Multiplicity = 6

                         Standard orientation:
 ---------------------------------------------------------------------
 Center     Atomic      Atomic             Coordinates (Angstroms)
 Number     Number       Type             X           Y           Z
 ---------------------------------------------------------------------
      1          6           0        3.393295   -0.854867    4.988401
      2          6           0        2.363275   -0.508978    3.925814
      3          7           0        1.034173   -0.453374    4.181899
      4          6           0        2.548730   -0.333957    2.565861
      5          6           0        0.390107   -0.245561    3.003801
      6          7           0        1.318737   -0.164601    2.005665
      7          6           0       -0.804237    2.327292   -2.792125
      8          6           0        0.522934    1.585453   -2.992157
      9         16           0        0.588841   -0.071685   -2.252399
     10          6           0       -0.945281   -0.892485   -2.739703
     11          6           0       -2.464636   -0.039004    0.573976
     12          6           0        0.876162   -3.466805    0.035230
     13          6           0        4.205148   -0.072686   -0.803207
     14          6           0        0.997857    3.324169    0.362075
     15          6           0       -1.853709   -1.271821    0.468959
     16          6           0       -2.489721   -2.489576    0.592193
     17          6           0       -1.519140   -3.475070    0.489427
     18          6           0       -0.327823   -2.833874    0.251662
     19          6           0       -1.702937   -4.976351    0.582639
     20          6           0       -3.967911   -2.687218    0.761274
     21          6           0       -4.603178   -2.620754   -0.607907
     22          6           0       -6.104652   -2.808629   -0.504068
     23          8           0       -6.593533   -3.177315    0.560110
     24          8           0       -6.698363   -3.148107   -1.599201
     25          6           0        2.084675   -2.853297   -0.219407
     26          6           0        3.273456   -3.519626   -0.510320
     27          6           0        4.220326   -2.545216   -0.844828
     28          6           0        3.600102   -1.303616   -0.648485
     29          6           0        3.462952   -5.021208   -0.521973
     30          6           0        5.633203   -2.753981   -1.352955
     31          6           0        5.688020   -3.369498   -2.748270
     32          6           0        3.614044    1.161679   -0.580603
     33          6           0        4.272903    2.384609   -0.614192
     34          6           0        3.384640    3.334519   -0.118506
     35          6           0        2.173060    2.701405    0.020806
     36          6           0        5.732350    2.595123   -0.974208
     37          6           0        3.669916    4.780095    0.265985
     38          6           0        4.113733    5.634418   -0.916541
     39          6           0       -0.223163    2.708062    0.484248
     40          6           0       -1.420507    3.374793    0.722392
     41          6           0       -2.427300    2.418638    0.693964
     42          6           0       -1.810867    1.178847    0.534883
     43          6           0       -1.592616    4.866560    0.927591
     44          6           0       -3.911939    2.654871    0.827976
     45          6           0       -4.629756    2.643062   -0.512010
     46          6           0       -6.135750    2.779124   -0.295250
     47          8           0       -6.894364    2.290104   -1.136802
     48          8           0       -6.623440    3.662712    0.552568
     49          7           0       -0.538125   -1.490692    0.259041
     50          7           0        2.300544   -1.509329   -0.286124
     51          7           0        2.330468    1.371782   -0.194892
     52          7           0       -0.464508    1.361805    0.363168
     53         26           0        0.909356   -0.042011    0.078999
     54          1           0       -1.763205   -0.210477   -2.635950
     55          1           0       -0.872090   -1.209195   -3.759133
     56          1           0       -1.109041   -1.743854   -2.112604
     57          1           0       -0.669468    3.113354   -2.078793
     58          1           0       -1.124585    2.742921   -3.724610
     59          1           0       -1.544673    1.643206   -2.433402
     60          1           0        0.702093    1.492746   -4.042969
     61          1           0        1.306711    2.176152   -2.565931
     62          1           0        6.241528    3.047782   -0.149139
     63          1           0        6.184250    1.651374   -1.197867
     64          1           0        5.800092    3.234614   -1.829405
     65          1           0        5.225619   -0.070834   -1.124974
     66          1           0        2.562912   -5.496855   -0.192445
     67          1           0        3.693658   -5.343888   -1.515729
     68          1           0        4.266252   -5.284430    0.134018
     69          1           0        0.873560   -4.536307    0.067760
     70          1           0       -2.714403   -5.195672    0.854182
     71          1           0       -1.483388   -5.422079   -0.365002
     72          1           0       -1.040800   -5.371360    1.324557
     73          1           0       -4.367881   -1.914633    1.384200
     74          1           0       -4.157510   -3.643312    1.202677
     75          1           0       -4.395937   -1.667575   -1.047679
     76          1           0       -4.192507   -3.391793   -1.225764
     77          1           0       -7.612299   -2.894853   -1.748141
     78          1           0       -7.837832    2.461083   -1.089534
     79          1           0       -4.281471    3.459997   -1.108848
     80          1           0       -4.425214    1.721909   -1.016530
     81          1           0       -4.069573    3.604252    1.295657
     82          1           0       -4.328473    1.889910    1.449455
     83          1           0       -1.880250    5.056404    1.940570
     84          1           0       -0.668352    5.364114    0.720043
     85          1           0       -2.350754    5.232324    0.267027
     86          1           0       -3.527649   -0.024263    0.695167
     87          1           0        1.036798    4.377121    0.548292
     88          1           0        4.849851   -3.277349   -3.406967
     89          1           0        6.564623   -3.893226   -3.067919
     90          1           0        6.505240   -2.495488   -0.789365
     91          1           0        3.783256    6.648875   -0.997553
     92          1           0        4.755637    5.219442   -1.665309
     93          1           0        3.569396    5.157137    1.262295
     94          1           0        2.913945   -0.916826    5.943013
     95          1           0        3.844928   -1.796211    4.754308
     96          1           0        4.146208   -0.095090    5.016005
     97          1           0        3.485807   -0.332006    2.049349
     98          1           0        0.603325   -0.548463    5.079300
     99          1           0       -0.669075   -0.159584    2.878737
 ---------------------------------------------------------------------

 SCF Done:  E(UPBE1PBE) =  -3879.24877623     A.U. after   33 cycles

 Alpha virt. eigenvalues --    1.00103   1.00380   1.00681   1.00702   1.00873
 Alpha virt. eigenvalues --    1.01424   1.01550   1.01684   1.02183   1.02695
 Alpha virt. eigenvalues --    1.02774   1.03075   1.03249   1.03490   1.03714

  Beta  occ. eigenvalues -- -256.46175 -89.04846 -30.19371 -26.02575 -26.02559
  Beta  occ. eigenvalues --  -26.02523 -19.28728 -19.26020 -19.20079 -19.18883
  Beta  occ. eigenvalues --  -14.47233 -14.42264 -14.39414 -14.39304 -14.39066
  Beta  occ. eigenvalues --  -14.38942 -10.37664 -10.36732 -10.31306 -10.28458
  Beta  occ. eigenvalues --  -10.27974 -10.27509 -10.27474 -10.27390 -10.27333
  Beta  occ. eigenvalues --  -10.27265 -10.27260 -10.27214 -10.26945 -10.26783
  Beta  occ. eigenvalues --  -10.26267 -10.26150 -10.26106 -10.25585 -10.25422
  Beta  occ. eigenvalues --  -10.25313 -10.25160 -10.25140 -10.25070 -10.25070
  Beta  occ. eigenvalues --  -10.24988 -10.24905 -10.24881 -10.24781 -10.24698
  Beta  occ. eigenvalues --  -10.24475 -10.24375 -10.24327 -10.24033 -10.23825
  Beta  occ. eigenvalues --  -10.23373 -10.23299 -10.22471 -10.22412 -10.22325
  Beta  occ. eigenvalues --  -10.22151 -10.21800  -8.02828  -5.96480  -5.96157
  Beta  occ. eigenvalues --   -5.95619  -3.48593  -2.23163  -2.22869  -2.22820
  Beta  occ. eigenvalues --   -1.19376  -1.16324  -1.07948  -1.04992  -1.02423
  Beta  occ. eigenvalues --   -1.01806  -1.00955  -1.00627  -1.00353  -0.93766
  Beta  occ. eigenvalues --   -0.87637  -0.86111  -0.86031  -0.85713  -0.84976
  Beta  occ. eigenvalues --   -0.84595  -0.84095  -0.83608  -0.82071  -0.81711
  Beta  occ. eigenvalues --   -0.81037  -0.79152  -0.79005  -0.78359  -0.77099
  Beta  occ. eigenvalues --   -0.76140  -0.75041  -0.73973  -0.73640  -0.72911
  Beta  occ. eigenvalues --   -0.72366  -0.72075  -0.71237  -0.70297  -0.69458
  Beta  occ. eigenvalues --   -0.69216  -0.67359  -0.66359  -0.65132  -0.64359
  Beta  occ. eigenvalues --   -0.64213  -0.63792  -0.62416  -0.62242  -0.61565
  Beta  occ. eigenvalues --   -0.59527  -0.58384  -0.58125  -0.57898  -0.56040
  Beta  occ. eigenvalues --   -0.55357  -0.55120  -0.54997  -0.53886  -0.53391
  Beta  occ. eigenvalues --   -0.52485  -0.52360  -0.52024  -0.51706  -0.51370
  Beta  occ. eigenvalues --   -0.50948  -0.50462  -0.50323  -0.50174  -0.49832
  Beta  occ. eigenvalues --   -0.49308  -0.48864  -0.48252  -0.48140  -0.47691
  Beta  occ. eigenvalues --   -0.47509  -0.47083  -0.46944  -0.46745  -0.46486
  Beta  occ. eigenvalues --   -0.46129  -0.45805  -0.45741  -0.45542  -0.45044
  Beta  occ. eigenvalues --   -0.44811  -0.44413  -0.44168  -0.43891  -0.43739
  Beta  occ. eigenvalues --   -0.43655  -0.43436  -0.43252  -0.42990  -0.42929
  Beta  occ. eigenvalues --   -0.42876  -0.42520  -0.42457  -0.42169  -0.41973
  Beta  occ. eigenvalues --   -0.41851  -0.41290  -0.41088  -0.40906  -0.40622
  Beta  occ. eigenvalues --   -0.40351  -0.40319  -0.40165  -0.39740  -0.39380
  Beta  occ. eigenvalues --   -0.39261  -0.39121  -0.38810  -0.38551  -0.38171
  Beta  occ. eigenvalues --   -0.37948  -0.37742  -0.37554  -0.37370  -0.36339
  Beta  occ. eigenvalues --   -0.36079  -0.35686  -0.35298  -0.34302  -0.34141
  Beta  occ. eigenvalues --   -0.33273  -0.32615  -0.31837  -0.31644  -0.30131
  Beta  occ. eigenvalues --   -0.29209  -0.28923  -0.28493  -0.27077  -0.26765
  Beta  occ. eigenvalues --   -0.25904  -0.25526  -0.25226  -0.24324  -0.23015
  Beta  occ. eigenvalues --   -0.22215
  Beta virt. eigenvalues --   -0.12528  -0.12460  -0.10112  -0.09140  -0.08913
  Beta virt. eigenvalues --   -0.07039  -0.05756  -0.03978  -0.03903  -0.03085
  Beta virt. eigenvalues --   -0.02423  -0.02335  -0.00689   0.00999   0.01844

 Mulliken charges and spin densities:
               1          2
     1  C   -0.383800   0.001150
     2  C    0.115780   0.007268
     3  N   -0.179981   0.004184
     4  C   -0.217773   0.001159
     5  C   -0.019272   0.018461
     6  N    0.070539   0.049028
     7  C   -0.390264   0.001423
     8  C   -0.141937   0.002489
     9  S   -0.027684   0.097201
    10  C   -0.375882   0.003042
    11  C   -0.663001  -0.021564
    12  C   -0.536445  -0.016383
    13  C   -0.539564  -0.014935
    14  C   -0.557001  -0.020748
    15  C    0.257388   0.017438
    16  C    0.110730   0.017429
    17  C   -0.090724   0.016228
    18  C    0.252107   0.015421
    19  C   -0.411314   0.000351
    20  C   -0.335929  -0.000009
    21  C   -0.217314   0.000562
    22  C    0.295451   0.000209
    23  O   -0.372261   0.000035
    24  O   -0.380921   0.000044
    25  C    0.335477   0.017413
    26  C   -0.042144   0.013557
    27  C   -0.036364   0.017999
    28  C    0.264846   0.015593
    29  C   -0.388519   0.000906
    30  C   -0.304474  -0.010357
    31  C   -0.339909   0.012336
    32  C    0.332789   0.012971
    33  C   -0.039884   0.034633
    34  C    0.002551   0.004853
    35  C    0.258608   0.019453
    36  C   -0.390577  -0.000072
    37  C   -0.285439   0.114466
    38  C   -0.319316  -0.116258
    39  C    0.298345   0.019012
    40  C   -0.045536   0.017902
    41  C    0.073112   0.022499
    42  C    0.255829   0.017705
    43  C   -0.421510   0.000830
    44  C   -0.375160  -0.000781
    45  C   -0.142810   0.000860
    46  C    0.274088   0.000151
    47  O   -0.299712   0.000009
    48  O   -0.493203  -0.000002
    49  N   -0.082488   0.057874
    50  N   -0.032050   0.050036
    51  N   -0.015977   0.057590
    52  N    0.052289   0.058837
    53  Fe  -0.193756   4.355144
    54  H    0.148648   0.000315
    55  H    0.178962   0.003538
    56  H    0.174623   0.000173
    57  H    0.136582  -0.000156
    58  H    0.148134   0.000402
    59  H    0.108300   0.000051
    60  H    0.157896   0.003809
    61  H    0.155920   0.000040
    62  H    0.155432   0.001339
    63  H    0.144774  -0.000074
    64  H    0.151975   0.001197
    65  H    0.148153   0.000046
    66  H    0.139496  -0.000040
    67  H    0.157768   0.000527
    68  H    0.152067   0.000409
    69  H    0.160528   0.000008
    70  H    0.152337   0.000330
    71  H    0.156126   0.000570
    72  H    0.156045   0.000474
    73  H    0.135582   0.000249
    74  H    0.144103   0.000336
    75  H    0.142249   0.000028
    76  H    0.162899  -0.000004
    77  H    0.375060   0.000016
    78  H    0.383643   0.000029
    79  H    0.164558  -0.000024
    80  H    0.135973   0.000010
    81  H    0.147206   0.000436
    82  H    0.143923   0.000405
    83  H    0.164499   0.000714
    84  H    0.144138  -0.000034
    85  H    0.156846   0.000580
    86  H    0.160835   0.000347
    87  H    0.156608   0.000463
    88  H    0.179082  -0.000583
    89  H    0.169773  -0.000356
    90  H    0.180769   0.000911
    91  H    0.177738   0.006111
    92  H    0.178904   0.005818
    93  H    0.190787  -0.005492
    94  H    0.148874   0.000225
    95  H    0.160533   0.000154
    96  H    0.160658   0.000127
    97  H    0.189734   0.000974
    98  H    0.289253   0.001085
    99  H    0.211978  -0.000131
 Sum of Mulliken charges =   1.00000   5.00000

 Dipole moment (field-independent basis, Debye):
    X=              3.6846    Y=             -0.3948    Z=              0.6060  Tot=              3.7549
 Quadrupole moment (field-independent basis, Debye-Ang):
   XX=           -262.6311   YY=           -285.1948   ZZ=           -263.6226
   XY=              7.1090   XZ=             40.8344   YZ=             -8.3566

 Normal termination of Gaussian 16 at Mon Feb 20 13:20:34 2023.
