 Gaussian 16, Revision A.03,

 ---------------------------------------------------------------------
 # polar def2tzvp empiricaldispersion=gd3bj int=grid=ultrafine pbe1pbe
 ---------------------------------------------------------------------

 ---------
 1ccg_II_S
 ---------
 Symbolic Z-matrix:
 Charge =  0 Multiplicity = 1

 SCF Done:  E(RPBE1PBE) =  -3399.31414172     A.U. after   24 cycles

  Exact polarizability: 864.430 -21.379 801.809 -33.807 -22.274 327.329
 Approx polarizability:1485.030 -50.4091503.394 -82.025 -46.654 540.892

 Normal termination of Gaussian 16 at Sun Jan 15 17:36:11 2023.
 Gaussian 16:  ES64L-G16RevA.03 25-Dec-2016

 ----------------------------------------------------------------------
 # PBE1PBE/def2TZVP empiricaldispersion=GD3BJ int=(grid=ultrafine) geom
 =check guess=read pop=nbo scf=qc
 ----------------------------------------------------------------------

 -------------
 1ccg_II_S_nbo
 -------------
 Structure from the checkpoint file:  "1ccg_II_S.chk"
 Charge =  0 Multiplicity = 1

                         Standard orientation:
 ---------------------------------------------------------------------
 Center     Atomic      Atomic             Coordinates (Angstroms)
 Number     Number       Type             X           Y           Z
 ---------------------------------------------------------------------
      1          6           0       -2.347125   -0.118396    0.266940
      2          6           0        1.032194   -3.442471   -0.232027
      3          6           0        4.275182    0.005496   -0.641394
      4          6           0        0.830362    3.328305   -0.394087
      5          6           0       -1.729458   -1.358472    0.171965
      6          6           0       -2.412739   -2.562007    0.162091
      7          6           0       -1.422406   -3.560337    0.041847
      8          6           0       -0.224284   -2.864462   -0.063560
      9          6           0       -1.613800   -5.082680    0.078513
     10          6           0       -3.937964   -2.694353    0.257386
     11          6           0       -4.688401   -2.763664   -1.038349
     12          6           0       -6.211037   -2.869786   -0.859397
     13          8           0       -6.711277   -3.895741   -0.394219
     14          8           0       -6.948730   -1.940814   -1.190766
     15          6           0        2.270839   -2.794451   -0.296754
     16          6           0        3.497948   -3.460056   -0.339653
     17          6           0        4.446935   -2.447990   -0.383850
     18          6           0        3.720421   -1.254340   -0.437084
     19          6           0        3.646563   -4.971920   -0.197434
     20          6           0        5.851584   -2.474407   -0.347923
     21          6           0        6.727707   -3.604065   -0.186895
     22          6           0        3.632690    1.249217   -0.689602
     23          6           0        4.271535    2.452891   -0.980752
     24          6           0        3.226112    3.397974   -0.972701
     25          6           0        2.075418    2.713403   -0.612078
     26          6           0        5.770182    2.624982   -1.340702
     27          6           0        3.199991    4.783928   -1.198846
     28          6           0        4.299397    5.698136   -1.274909
     29          6           0       -0.378363    2.728224   -0.100626
     30          6           0       -1.546122    3.392460    0.215689
     31          6           0       -2.479160    2.363206    0.386050
     32          6           0       -1.799967    1.170766    0.186393
     33          6           0       -1.739767    4.890045    0.472621
     34          6           0       -3.938533    2.514034    0.798953
     35          6           0       -4.877845    2.571364   -0.392311
     36          6           0       -6.349898    2.583826   -0.058214
     37          8           0       -7.128233    2.125592   -0.887203
     38          8           0       -6.737399    3.050903    1.010484
     39          7           0       -0.412049   -1.545883    0.032290
     40          7           0        2.415914   -1.473068   -0.268700
     41          7           0        2.310920    1.410121   -0.475905
     42          7           0       -0.533349    1.405621   -0.074350
     43         26           0        0.953183   -0.034102    0.003887
     44          7           0        2.276907   -0.277308    3.728347
     45          6           0        1.739951   -0.785012    2.659426
     46          7           0        1.249957    0.204439    1.964542
     47          6           0        1.475700    1.318734    2.588883
     48          6           0        2.151214    1.017798    3.755969
     49          1           0        2.783842   -0.783995    4.378264
     50          8           0        0.649681   -0.381031   -1.927989
     51          1           0        2.493080    1.695089    4.510491
     52          1           0        1.190018    2.295773    2.259216
     53          1           0        1.706009   -1.821978    2.397798
     54          1           0        4.036987   -5.379027   -1.106683
     55          1           0        4.316568   -5.190269    0.607748
     56          1           0        2.690355   -5.406696    0.006369
     57          1           0        7.545125   -3.747698   -0.862245
     58          1           0        6.561914   -4.300635    0.608216
     59          1           0        6.334902   -1.525789   -0.454819
     60          1           0        5.335890    0.026968   -0.780450
     61          1           0        5.911760    3.560275   -1.840784
     62          1           0        6.356326    2.606751   -0.445715
     63          1           0        6.076446    1.826653   -1.983954
     64          1           0        4.195806    6.615671   -1.815556
     65          1           0        5.224549    5.463761   -0.791110
     66          1           0        2.229263    5.213871   -1.332024
     67          1           0        0.817472    4.395915   -0.464378
     68          1           0       -2.406652    5.294310   -0.260000
     69          1           0       -2.152999    5.033893    1.449067
     70          1           0       -0.794918    5.388062    0.408275
     71          1           0       -4.045595    3.414449    1.367012
     72          1           0       -4.211252    1.682223    1.414270
     73          1           0       -4.654454    3.455456   -0.952114
     74          1           0       -4.682963    1.721900   -1.013063
     75          1           0        0.886715   -0.024905   -2.787401
     76          1           0        1.362297   -0.936939   -1.604347
     77          1           0       -4.158022   -3.581327    0.813940
     78          1           0       -4.308133   -1.855251    0.808549
     79          1           0       -4.471352   -1.883521   -1.606801
     80          1           0       -4.347969   -3.617857   -1.585488
     81          1           0       -6.909489   -1.591975   -2.084283
     82          1           0       -1.445035   -5.486987   -0.897681
     83          1           0       -0.917970   -5.513132    0.768028
     84          1           0       -2.611831   -5.309261    0.390754
     85          1           0       -3.404677   -0.151315    0.426314
     86          1           0        1.052471   -4.508431   -0.322680
     87          1           0       -7.188037    3.898366    1.028699
 ---------------------------------------------------------------------

 SCF Done:  E(RPBE1PBE) =  -3399.31414172     a.u. after    1 cycles

 The electronic state is 1-A.
 Alpha  occ. eigenvalues -- -256.31251 -30.07882 -25.90619 -25.90451 -25.90330
 Alpha  occ. eigenvalues --  -19.25785 -19.24948 -19.20948 -19.17888 -19.16664
 Alpha  occ. eigenvalues --  -14.46135 -14.39809 -14.37707 -14.36698 -14.35891
 Alpha  occ. eigenvalues --  -14.35591 -10.34854 -10.33983 -10.28336 -10.25709
 Alpha  occ. eigenvalues --  -10.24765 -10.24729 -10.24240 -10.24195 -10.23975
 Alpha  occ. eigenvalues --  -10.23891 -10.23874 -10.23495 -10.23486 -10.23438
 Alpha  occ. eigenvalues --  -10.23173 -10.23135 -10.22896 -10.22711 -10.22520
 Alpha  occ. eigenvalues --  -10.22470 -10.22447 -10.22390 -10.22380 -10.22327
 Alpha  occ. eigenvalues --  -10.22215 -10.22182 -10.22151 -10.22128 -10.22047
 Alpha  occ. eigenvalues --  -10.22011 -10.21980 -10.21922 -10.21781 -10.21723
 Alpha  occ. eigenvalues --  -10.21599 -10.21559 -10.21371  -3.42847  -2.18899
 Alpha  occ. eigenvalues --   -2.18255  -2.18073  -1.18136  -1.16882  -1.10977
 Alpha  occ. eigenvalues --   -1.05743  -1.03736  -1.02219  -1.00994  -0.99884
 Alpha  occ. eigenvalues --   -0.99094  -0.98595  -0.94692  -0.84614  -0.83857
 Alpha  occ. eigenvalues --   -0.83609  -0.83329  -0.82486  -0.81967  -0.81428
 Alpha  occ. eigenvalues --   -0.79959  -0.79537  -0.78691  -0.77442  -0.76091
 Alpha  occ. eigenvalues --   -0.75588  -0.74127  -0.72824  -0.72417  -0.71812
 Alpha  occ. eigenvalues --   -0.70406  -0.70051  -0.68868  -0.67977  -0.67269
 Alpha  occ. eigenvalues --   -0.67057  -0.66025  -0.65690  -0.64629  -0.63387
 Alpha  occ. eigenvalues --   -0.62340  -0.61086  -0.59380  -0.58917  -0.58561
 Alpha  occ. eigenvalues --   -0.57036  -0.55798  -0.55132  -0.53817  -0.53208
 Alpha  occ. eigenvalues --   -0.53009  -0.52805  -0.52598  -0.52401  -0.51523
 Alpha  occ. eigenvalues --   -0.50708  -0.50050  -0.49775  -0.49308  -0.49111
 Alpha  occ. eigenvalues --   -0.48747  -0.48706  -0.48378  -0.47398  -0.46556
 Alpha  occ. eigenvalues --   -0.46150  -0.46091  -0.45441  -0.45234  -0.45086
 Alpha  occ. eigenvalues --   -0.44968  -0.44858  -0.44627  -0.44372  -0.43977
 Alpha  occ. eigenvalues --   -0.43808  -0.43500  -0.43222  -0.42924  -0.42446
 Alpha  occ. eigenvalues --   -0.42288  -0.41870  -0.41678  -0.41480  -0.41335
 Alpha  occ. eigenvalues --   -0.40699  -0.40399  -0.39970  -0.39580  -0.39501
 Alpha  occ. eigenvalues --   -0.38981  -0.38906  -0.38682  -0.38177  -0.38093
 Alpha  occ. eigenvalues --   -0.37629  -0.37270  -0.36951  -0.36620  -0.36554
 Alpha  occ. eigenvalues --   -0.35987  -0.35930  -0.35218  -0.35060  -0.34792
 Alpha  occ. eigenvalues --   -0.34256  -0.33975  -0.33543  -0.33298  -0.32028
 Alpha  occ. eigenvalues --   -0.31903  -0.30634  -0.30588  -0.30338  -0.29730
 Alpha  occ. eigenvalues --   -0.28278  -0.27951  -0.27687  -0.26855  -0.25912
 Alpha  occ. eigenvalues --   -0.24006  -0.23869  -0.22356  -0.21508  -0.20910
 Alpha  occ. eigenvalues --   -0.19728  -0.19359  -0.19094  -0.18724
 Alpha virt. eigenvalues --   -0.08731  -0.08292  -0.05086  -0.02698  -0.01425
 Alpha virt. eigenvalues --    0.00257   0.00559   0.01011   0.01766   0.02575
 Alpha virt. eigenvalues --    0.03133   0.03728   0.03855   0.03896   0.04501

 Mulliken charges:
               1
     1  C   -0.473821
     2  C   -0.489790
     3  C   -0.425283
     4  C   -0.528677
     5  C    0.331585
     6  C    0.026296
     7  C   -0.094530
     8  C    0.250649
     9  C   -0.407434
    10  C   -0.433696
    11  C   -0.179858
    12  C    0.293121
    13  O   -0.348044
    14  O   -0.304942
    15  C    0.310111
    16  C   -0.121868
    17  C   -0.017859
    18  C    0.254606
    19  C   -0.348822
    20  C   -0.110899
    21  C   -0.347502
    22  C    0.229250
    23  C   -0.130525
    24  C    0.018046
    25  C    0.292942
    26  C   -0.410025
    27  C   -0.131302
    28  C   -0.333036
    29  C    0.326365
    30  C   -0.130200
    31  C    0.066914
    32  C    0.216974
    33  C   -0.404496
    34  C   -0.321649
    35  C   -0.212985
    36  C    0.256674
    37  O   -0.331349
    38  O   -0.337788
    39  N   -0.030995
    40  N   -0.226406
    41  N   -0.030610
    42  N   -0.061308
    43  Fe  -0.191544
    44  N   -0.159237
    45  C    0.018777
    46  N    0.012066
    47  C   -0.121273
    48  C   -0.082451
    49  H    0.223731
    50  O   -0.445998
    51  H    0.154473
    52  H    0.154178
    53  H    0.179810
    54  H    0.143183
    55  H    0.126268
    56  H    0.118437
    57  H    0.143417
    58  H    0.132332
    59  H    0.116041
    60  H    0.100214
    61  H    0.148597
    62  H    0.144553
    63  H    0.131889
    64  H    0.134891
    65  H    0.142080
    66  H    0.105601
    67  H    0.072781
    68  H    0.136128
    69  H    0.137523
    70  H    0.127495
    71  H    0.099212
    72  H    0.134205
    73  H    0.124350
    74  H    0.130899
    75  H    0.323061
    76  H    0.305779
    77  H    0.136848
    78  H    0.126838
    79  H    0.108147
    80  H    0.124289
    81  H    0.350742
    82  H    0.140728
    83  H    0.131785
    84  H    0.144432
    85  H    0.100908
    86  H    0.109306
    87  H    0.356675
 Sum of Mulliken charges =  -0.00000

 Dipole moment (field-independent basis, Debye):
    X=              5.3076    Y=              3.4515    Z=              3.2552  Tot=              7.1190
 Quadrupole moment (field-independent basis, Debye-Ang):
   XX=           -325.9537   YY=           -277.8600   ZZ=           -262.5786
   XY=            -43.2999   XZ=             13.7243   YZ=              5.7373

 Summary of Natural Population Analysis:

                                       Natural Population
                Natural  -----------------------------------------------
    Atom  No    Charge         Core      Valence    Rydberg      Total
 -----------------------------------------------------------------------
      C    1   -0.18312      1.99910     4.16753    0.01649     6.18312
      C    2   -0.21654      1.99909     4.20168    0.01577     6.21654
      C    3   -0.20963      1.99908     4.19457    0.01598     6.20963
      C    4   -0.18702      1.99907     4.17239    0.01556     6.18702
      C    5    0.12753      1.99893     3.85236    0.02119     5.87247
      C    6   -0.01929      1.99887     4.00135    0.01907     6.01929
      C    7   -0.01784      1.99888     4.00230    0.01666     6.01784
      C    8    0.12469      1.99896     3.85493    0.02142     5.87531
      C    9   -0.63863      1.99940     4.63217    0.00707     6.63863
      C   10   -0.41684      1.99931     4.40240    0.01513     6.41684
      C   11   -0.50629      1.99924     4.48954    0.01751     6.50629
      C   12    0.76618      1.99955     3.19700    0.03727     5.23382
      O   13   -0.57482      1.99977     6.55022    0.02483     8.57482
      O   14   -0.65330      1.99956     6.62134    0.03240     8.65330
      C   15    0.12121      1.99901     3.85751    0.02227     5.87879
      C   16    0.01358      1.99888     3.96933    0.01821     5.98642
      C   17   -0.13104      1.99888     4.11074    0.02142     6.13104
      C   18    0.16398      1.99904     3.81474    0.02224     5.83602
      C   19   -0.63229      1.99940     4.62496    0.00792     6.63229
      C   20   -0.17205      1.99928     4.15394    0.01882     6.17205
      C   21   -0.41687      1.99946     4.40324    0.01416     6.41687
      C   22    0.11925      1.99898     3.86062    0.02115     5.88075
      C   23    0.01801      1.99887     3.96596    0.01715     5.98199
      C   24   -0.12865      1.99890     4.10916    0.02059     6.12865
      C   25    0.15410      1.99901     3.82528    0.02161     5.84590
      C   26   -0.64078      1.99939     4.63430    0.00708     6.64078
      C   27   -0.18143      1.99928     4.16750    0.01464     6.18143
      C   28   -0.41081      1.99945     4.39890    0.01246     6.41081
      C   29    0.11273      1.99892     3.86649    0.02186     5.88727
      C   30   -0.02536      1.99882     4.00935    0.01718     6.02536
      C   31   -0.02894      1.99889     4.01148    0.01857     6.02894
      C   32    0.13175      1.99897     3.84798    0.02129     5.86825
      C   33   -0.63417      1.99940     4.62752    0.00724     6.63417
      C   34   -0.42291      1.99935     4.41045    0.01311     6.42291
      C   35   -0.50360      1.99925     4.48740    0.01695     6.50360
      C   36    0.76914      1.99951     3.19301    0.03834     5.23086
      O   37   -0.57308      1.99977     6.54826    0.02505     8.57308
      O   38   -0.68179      1.99955     6.65169    0.03055     8.68179
      N   39   -0.37788      1.99929     5.33033    0.04826     7.37788
      N   40   -0.44601      1.99927     5.40079    0.04595     7.44601
      N   41   -0.37486      1.99931     5.32861    0.04694     7.37486
      N   42   -0.36718      1.99926     5.31976    0.04815     7.36718
     Fe   43    0.19342     17.99205     7.77532    0.03921    25.80658
      N   44   -0.44954      1.99932     5.42825    0.02197     7.44954
      C   45    0.17277      1.99933     3.80713    0.02077     5.82723
      N   46   -0.33752      1.99927     5.29023    0.04803     7.33752
      C   47   -0.04540      1.99917     4.02445    0.02178     6.04540
      C   48   -0.11442      1.99925     4.09592    0.01925     6.11442
      H   49    0.41052      0.00000     0.58780    0.00168     0.58948
      O   50   -0.80895      1.99980     6.78834    0.02082     8.80895
      H   51    0.22564      0.00000     0.77316    0.00120     0.77436
      H   52    0.22832      0.00000     0.77031    0.00137     0.77168
      H   53    0.22625      0.00000     0.77193    0.00182     0.77375
      H   54    0.22950      0.00000     0.76860    0.00190     0.77050
      H   55    0.22262      0.00000     0.77589    0.00149     0.77738
      H   56    0.21438      0.00000     0.78435    0.00127     0.78562
      H   57    0.20075      0.00000     0.79763    0.00161     0.79925
      H   58    0.19097      0.00000     0.80711    0.00192     0.80903
      H   59    0.20067      0.00000     0.79774    0.00160     0.79933
      H   60    0.20598      0.00000     0.79057    0.00345     0.79402
      H   61    0.23153      0.00000     0.76667    0.00180     0.76847
      H   62    0.22076      0.00000     0.77766    0.00158     0.77924
      H   63    0.21760      0.00000     0.78084    0.00156     0.78240
      H   64    0.19830      0.00000     0.80030    0.00140     0.80170
      H   65    0.19119      0.00000     0.80714    0.00167     0.80881
      H   66    0.19629      0.00000     0.80167    0.00204     0.80371
      H   67    0.20275      0.00000     0.79486    0.00239     0.79725
      H   68    0.21744      0.00000     0.78090    0.00166     0.78256
      H   69    0.22085      0.00000     0.77762    0.00153     0.77915
      H   70    0.21862      0.00000     0.78018    0.00120     0.78138
      H   71    0.21306      0.00000     0.78444    0.00251     0.78694
      H   72    0.21421      0.00000     0.78360    0.00219     0.78579
      H   73    0.23138      0.00000     0.76725    0.00137     0.76862
      H   74    0.23376      0.00000     0.76469    0.00155     0.76624
      H   75    0.49314      0.00000     0.50431    0.00255     0.50686
      H   76    0.50501      0.00000     0.48948    0.00551     0.49499
      H   77    0.23138      0.00000     0.76682    0.00181     0.76862
      H   78    0.21145      0.00000     0.78689    0.00166     0.78855
      H   79    0.20443      0.00000     0.79387    0.00171     0.79557
      H   80    0.23289      0.00000     0.76573    0.00138     0.76711
      H   81    0.50912      0.00000     0.48859    0.00229     0.49088
      H   82    0.22061      0.00000     0.77777    0.00163     0.77939
      H   83    0.21751      0.00000     0.78092    0.00157     0.78249
      H   84    0.22486      0.00000     0.77374    0.00140     0.77514
      H   85    0.19917      0.00000     0.79829    0.00253     0.80083
      H   86    0.20788      0.00000     0.78941    0.00271     0.79212
      H   87    0.51973      0.00000     0.47782    0.00245     0.48027
 =======================================================================
   * Total *   -0.00000    113.95442   252.86525    1.18033   368.00000

 Normal termination of Gaussian 16 at Sun Jan 15 18:04:01 2023.
