 Gaussian 16, Revision A.03,
 Gaussian 16:  ES64L-G16RevA.03 25-Dec-2016

 ----------------------------------------------------------------------
 # PBE1PBE/def2TZVP empiricaldispersion=GD3BJ scf=maxcycle=999 geom=che
 ck pop=nbo
 ----------------------------------------------------------------------

 ---------
 1mz4_II_Q
 ---------
 Structure from the checkpoint file:  "1mz4_II_Q.chk"
 Charge =  0 Multiplicity = 5

                         Standard orientation:
 ---------------------------------------------------------------------
 Center     Atomic      Atomic             Coordinates (Angstroms)
 Number     Number       Type             X           Y           Z
 ---------------------------------------------------------------------
      1          6           0        2.652192   -1.957398    4.905315
      2          6           0        1.789343   -1.366360    3.832160
      3          7           0        0.441607   -1.127899    4.000253
      4          6           0        2.074424   -1.016065    2.555177
      5          6           0       -0.066117   -0.662861    2.872670
      6          7           0        0.905473   -0.585140    1.979037
      7          6           0       -0.055051    2.968785   -4.406324
      8          6           0        0.293411    1.782913   -3.561356
      9          7           0        1.249874    0.862793   -3.931495
     10          6           0       -0.092036    1.446560   -2.308206
     11          6           0        1.443232    0.011381   -2.936084
     12          7           0        0.644178    0.345284   -1.938674
     13         26           0        0.791272   -0.077071    0.030868
     14          6           0       -2.649261   -0.034497    0.169966
     15          6           0        0.725411   -3.410312   -0.799558
     16          6           0        4.249295   -0.088037   -0.242435
     17          6           0        0.876277    3.175938    1.054961
     18          7           0       -0.647628   -1.420887   -0.225797
     19          6           0       -2.020364   -1.237068   -0.128632
     20          6           0       -2.731694   -2.463914   -0.432595
     21          6           0       -1.791109   -3.393654   -0.732185
     22          6           0       -0.501005   -2.761774   -0.575488
     23          6           0       -2.055322   -4.824121   -1.201637
     24          6           0       -4.253555   -2.697707   -0.428760
     25          6           0       -4.713412   -3.029972    0.990584
     26          6           0       -6.162927   -3.484724    1.055693
     27          8           0       -6.637765   -3.806183    2.167351
     28          8           0       -6.827140   -3.523508    0.001140
     29          7           0        2.175277   -1.431872   -0.433122
     30          6           0        1.974124   -2.780763   -0.723170
     31          6           0        3.228971   -3.442531   -1.000435
     32          6           0        4.233911   -2.516470   -0.914547
     33          6           0        3.570057   -1.267481   -0.536002
     34          6           0        3.395761   -4.934778   -1.271595
     35          6           0        5.614432   -2.740927   -1.115335
     36          6           0        6.122297   -3.177362   -2.346920
     37          7           0        2.237811    1.245441    0.305584
     38          6           0        3.619158    1.091168    0.152940
     39          6           0        4.331136    2.286766    0.563021
     40          6           0        3.396461    3.199510    0.939554
     41          6           0        2.094374    2.552540    0.770617
     42          6           0        5.853329    2.447297    0.667483
     43          6           0        3.627666    4.458675    1.520303
     44          6           0        4.272384    5.471069    0.828936
     45          7           0       -0.583293    1.266834    0.519718
     46          6           0       -0.373569    2.585845    0.911266
     47          6           0       -1.630891    3.294715    1.052810
     48          6           0       -2.619234    2.406522    0.763364
     49          6           0       -1.975535    1.142253    0.472328
     50          6           0       -1.814787    4.747132    1.486482
     51          6           0       -4.107158    2.694720    0.611916
     52          6           0       -4.369233    3.222769   -0.792767
     53          6           0       -5.839362    3.463725   -1.063135
     54          8           0       -6.527767    2.550615   -1.575160
     55          8           0       -6.306151    4.574090   -0.750179
     56          1           0       -0.435413    2.635463   -5.349256
     57          1           0       -0.799081    3.555037   -3.908703
     58          1           0        0.820313    3.563345   -4.564875
     59          1           0       -0.831187    1.944324   -1.715933
     60          1           0        1.722983    0.841416   -4.812240
     61          1           0        2.130627   -0.808606   -2.939110
     62          1           0        3.660597   -2.026828    4.554319
     63          1           0        2.619001   -1.333249    5.773782
     64          1           0        2.293094   -2.934148    5.154128
     65          1           0       -0.071653   -1.282865    4.844379
     66          1           0       -1.089178   -0.394796    2.710228
     67          1           0        3.033293   -1.066015    2.082975
     68          1           0        6.107721   -4.246752   -2.379950
     69          1           0        5.518679   -2.787773   -3.139868
     70          1           0        7.128131   -2.830679   -2.460979
     71          1           0        3.620992    5.857844    0.073295
     72          1           0        4.535984    6.254882    1.507944
     73          1           0        5.158214    5.082543    0.371494
     74          1           0        3.297233    4.639601    2.521792
     75          1           0        6.291617   -2.572965   -0.304095
     76          1           0        6.217721    2.962870   -0.196405
     77          1           0        6.093264    3.009275    1.545841
     78          1           0        6.310633    1.481707    0.725870
     79          1           0        5.316103   -0.086535   -0.325000
     80          1           0        3.963307   -5.073136   -2.168059
     81          1           0        3.908451   -5.391308   -0.450845
     82          1           0        2.432489   -5.386342   -1.386034
     83          1           0        0.703795   -4.451749   -1.044184
     84          1           0       -1.522290   -5.005059   -2.111603
     85          1           0       -1.724947   -5.512318   -0.451878
     86          1           0       -3.103680   -4.956334   -1.370052
     87          1           0        0.908550    4.184641    1.410457
     88          1           0       -3.719050   -0.013489    0.166826
     89          1           0       -2.344054    5.282178    0.725889
     90          1           0       -2.372757    4.778999    2.398926
     91          1           0       -0.856417    5.198030    1.638535
     92          1           0       -4.000073    2.512308   -1.502602
     93          1           0       -3.839943    4.144073   -0.919063
     94          1           0       -6.543949    2.438753   -2.528483
     95          1           0       -4.664110    1.794175    0.765943
     96          1           0       -4.405247    3.428029    1.331846
     97          1           0       -4.491054   -3.512281   -1.080652
     98          1           0       -4.751305   -1.813053   -0.767186
     99          1           0       -4.091176   -3.808461    1.380041
    100          1           0       -4.598636   -2.159200    1.601716
    101          1           0       -6.379295   -3.542759   -0.847779
 ---------------------------------------------------------------------

 SCF Done:  E(UPBE1PBE) =  -3628.79040256     A.U. after  228 cycles

 Alpha virt. eigenvalues --    1.15929   1.16570   1.16728   1.17597   1.17875
 Alpha virt. eigenvalues --    1.18487   1.18598   1.18852   1.19233   1.19425
 Alpha virt. eigenvalues --    1.19721   1.20331   1.20736   1.20822   1.21268

  Beta  occ. eigenvalues -- -256.32588 -30.07270 -25.91630 -25.91229 -25.87722
  Beta  occ. eigenvalues --  -19.26850 -19.25540 -19.18184 -19.16620 -14.43900
  Beta  occ. eigenvalues --  -14.43578 -14.37397 -14.37315 -14.37237 -14.37132
  Beta  occ. eigenvalues --  -14.36609 -14.36258 -10.35077 -10.34597 -10.26969
  Beta  occ. eigenvalues --  -10.26644 -10.25269 -10.24952 -10.24546 -10.24462
  Beta  occ. eigenvalues --  -10.24426 -10.24373 -10.24364 -10.24238 -10.24188
  Beta  occ. eigenvalues --  -10.24141 -10.24026 -10.22987 -10.22873 -10.22667
  Beta  occ. eigenvalues --  -10.22588 -10.22371 -10.22303 -10.22211 -10.22126
  Beta  occ. eigenvalues --  -10.22008 -10.21806 -10.21792 -10.21696 -10.21638
  Beta  occ. eigenvalues --  -10.21612 -10.21572 -10.21534 -10.21346 -10.21298
  Beta  occ. eigenvalues --  -10.21141 -10.21058 -10.20998 -10.20957 -10.20815
  Beta  occ. eigenvalues --  -10.20453 -10.20305 -10.19771 -10.19643  -3.39062
  Beta  occ. eigenvalues --   -2.16158  -2.15712  -2.10225  -1.17192  -1.16580
  Beta  occ. eigenvalues --   -1.05568  -1.05285  -1.02993  -1.01815  -0.96801
  Beta  occ. eigenvalues --   -0.95751  -0.95662  -0.94633  -0.89793  -0.89442
  Beta  occ. eigenvalues --   -0.84191  -0.83709  -0.82902  -0.82820  -0.82326
  Beta  occ. eigenvalues --   -0.80862  -0.80549  -0.80410  -0.79881  -0.78897
  Beta  occ. eigenvalues --   -0.78419  -0.77459  -0.77090  -0.74574  -0.73731
  Beta  occ. eigenvalues --   -0.72410  -0.72147  -0.71889  -0.71730  -0.71530
  Beta  occ. eigenvalues --   -0.69890  -0.69405  -0.68818  -0.66912  -0.66261
  Beta  occ. eigenvalues --   -0.64946  -0.64755  -0.63944  -0.63551  -0.62026
  Beta  occ. eigenvalues --   -0.61568  -0.61353  -0.61178  -0.58449  -0.56969
  Beta  occ. eigenvalues --   -0.56062  -0.55889  -0.55644  -0.54830  -0.53838
  Beta  occ. eigenvalues --   -0.53795  -0.53215  -0.52461  -0.52047  -0.51702
  Beta  occ. eigenvalues --   -0.50932  -0.50699  -0.50070  -0.49306  -0.48949
  Beta  occ. eigenvalues --   -0.48322  -0.47664  -0.47613  -0.47443  -0.47203
  Beta  occ. eigenvalues --   -0.46975  -0.46785  -0.46431  -0.45834  -0.45727
  Beta  occ. eigenvalues --   -0.45194  -0.45067  -0.44634  -0.44503  -0.44148
  Beta  occ. eigenvalues --   -0.43894  -0.43494  -0.43326  -0.43221  -0.43182
  Beta  occ. eigenvalues --   -0.42980  -0.42861  -0.42663  -0.42544  -0.42491
  Beta  occ. eigenvalues --   -0.42425  -0.42261  -0.42008  -0.41984  -0.41648
  Beta  occ. eigenvalues --   -0.41451  -0.41007  -0.40926  -0.40483  -0.40304
  Beta  occ. eigenvalues --   -0.39898  -0.39574  -0.39275  -0.39217  -0.39043
  Beta  occ. eigenvalues --   -0.38871  -0.38617  -0.38339  -0.38102  -0.37721
  Beta  occ. eigenvalues --   -0.37390  -0.37104  -0.36838  -0.36604  -0.36322
  Beta  occ. eigenvalues --   -0.36120  -0.35369  -0.34997  -0.34329  -0.34153
  Beta  occ. eigenvalues --   -0.33394  -0.32878  -0.32302  -0.32150  -0.31959
  Beta  occ. eigenvalues --   -0.31664  -0.31427  -0.30871  -0.30296  -0.28777
  Beta  occ. eigenvalues --   -0.28007  -0.27688  -0.27481  -0.26802  -0.24954
  Beta  occ. eigenvalues --   -0.24443  -0.24028  -0.23808  -0.23519  -0.22833
  Beta  occ. eigenvalues --   -0.18913  -0.18703  -0.15975  -0.14162
  Beta virt. eigenvalues --   -0.06676  -0.06330  -0.04240  -0.03420  -0.01754
  Beta virt. eigenvalues --   -0.01590   0.00004   0.01138   0.01876   0.02315
  Beta virt. eigenvalues --    0.02602   0.02754   0.03043   0.03344   0.03827

 Mulliken charges and spin densities:
               1          2
     1  C   -0.387280   0.001032
     2  C    0.165264   0.004899
     3  N   -0.220130  -0.001625
     4  C   -0.202073  -0.005284
     5  C    0.006327  -0.015467
     6  N    0.074881   0.054561
     7  C   -0.386816   0.001119
     8  C    0.113044   0.002977
     9  N   -0.212625  -0.001337
    10  C   -0.127082   0.000194
    11  C    0.016488  -0.004111
    12  N    0.022753   0.047879
    13  Fe  -0.305413   2.321300
    14  C   -0.549912  -0.021815
    15  C   -0.540651   0.005908
    16  C   -0.574900   0.027875
    17  C   -0.542647  -0.026428
    18  N    0.036584  -0.016008
    19  C    0.216868  -0.021419
    20  C    0.067046  -0.006862
    21  C   -0.096690  -0.003171
    22  C    0.229105  -0.028430
    23  C   -0.391085   0.000939
    24  C   -0.474749   0.001889
    25  C   -0.165158  -0.000515
    26  C    0.268751   0.000168
    27  O   -0.372017  -0.000097
    28  O   -0.267696  -0.000002
    29  N   -0.048362   0.032713
    30  C    0.327241  -0.046057
    31  C   -0.070009   0.110316
    32  C    0.069890  -0.168162
    33  C    0.130509  -0.016008
    34  C   -0.395573  -0.007744
    35  C   -0.290722   0.965977
    36  C   -0.317226  -0.068384
    37  N    0.013197  -0.000098
    38  C    0.338326  -0.057921
    39  C   -0.054293   0.154004
    40  C    0.034689  -0.174778
    41  C    0.213303   0.009727
    42  C   -0.435152  -0.012118
    43  C   -0.328073   0.934100
    44  C   -0.284630  -0.071218
    45  N   -0.078991  -0.006454
    46  C    0.324975  -0.018127
    47  C   -0.074135  -0.010762
    48  C   -0.014445  -0.011134
    49  C    0.236861  -0.024805
    50  C   -0.389416   0.001435
    51  C   -0.327931   0.002199
    52  C   -0.186441  -0.001277
    53  C    0.311378  -0.000199
    54  O   -0.359957  -0.000027
    55  O   -0.336433  -0.000090
    56  H    0.130477   0.000167
    57  H    0.140095   0.000048
    58  H    0.136964   0.000114
    59  H    0.152080   0.001651
    60  H    0.221800   0.004073
    61  H    0.169739   0.002568
    62  H    0.141566   0.000040
    63  H    0.132509   0.000205
    64  H    0.135376   0.000225
    65  H    0.224052   0.004192
    66  H    0.167289   0.002835
    67  H    0.147566   0.002201
    68  H    0.128058   0.070438
    69  H    0.121223   0.021898
    70  H    0.122939   0.014850
    71  H    0.127276   0.066678
    72  H    0.113861   0.001837
    73  H    0.121695   0.044031
    74  H    0.126806  -0.050001
    75  H    0.119077  -0.049670
    76  H    0.144145   0.004715
    77  H    0.146599   0.007447
    78  H    0.125895   0.000320
    79  H    0.105261   0.004733
    80  H    0.129398   0.002890
    81  H    0.137772   0.005140
    82  H    0.119629  -0.000189
    83  H    0.107531   0.000007
    84  H    0.138735  -0.000730
    85  H    0.142468  -0.000512
    86  H    0.109290  -0.000069
    87  H    0.106745   0.004627
    88  H    0.102746   0.001421
    89  H    0.132180  -0.000579
    90  H    0.138290  -0.000372
    91  H    0.123991   0.000156
    92  H    0.103348   0.000302
    93  H    0.123371   0.000128
    94  H    0.353974   0.000013
    95  H    0.123020  -0.000278
    96  H    0.133129  -0.000177
    97  H    0.111554  -0.000045
    98  H    0.143582  -0.000647
    99  H    0.137834  -0.000083
   100  H    0.132895   0.000163
   101  H    0.337397  -0.000034
 Sum of Mulliken charges =  -0.00000   4.00000

 Dipole moment (field-independent basis, Debye):
    X=              7.0355    Y=             -0.9754    Z=             -5.4252  Tot=              8.9377
 Quadrupole moment (field-independent basis, Debye-Ang):
   XX=           -369.1542   YY=           -338.2304   ZZ=           -280.8624
   XY=              1.1838   XZ=             31.1091   YZ=              4.4657

 Summary of Natural Population Analysis:

                                       Natural Population
                Natural  -----------------------------------------------
    Atom  No    Charge         Core      Valence    Rydberg      Total
 -----------------------------------------------------------------------
      C    1   -0.31840      0.99970     2.31566    0.00305     3.31840
      C    2    0.04973      0.99954     1.94123    0.00950     2.95027
      N    3   -0.24296      0.99968     2.73308    0.01020     3.74296
      C    4   -0.03789      0.99943     2.02884    0.00962     3.03789
      C    5    0.08375      0.99965     1.90509    0.01151     2.91625
      N    6   -0.15421      0.99972     2.62670    0.02779     3.65421
      C    7   -0.31851      0.99969     2.31573    0.00308     3.31851
      C    8    0.04971      0.99954     1.94122    0.00953     2.95029
      N    9   -0.24364      0.99968     2.73375    0.01022     3.74364
      C   10   -0.03668      0.99943     2.02746    0.00978     3.03668
      C   11    0.08874      0.99966     1.89989    0.01171     2.91126
      N   12   -0.15821      0.99972     2.63157    0.02692     3.65821
     Fe   13    1.26097      8.99420     2.71915    0.02569    11.73903
      C   14   -0.13809      0.99948     2.12987    0.00874     3.13809
      C   15   -0.11580      0.99951     2.10834    0.00795     3.11580
      C   16   -0.11760      0.99948     2.11019    0.00793     3.11760
      C   17   -0.13004      0.99949     2.12273    0.00782     3.13004
      N   18   -0.17441      0.99968     2.65562    0.01910     3.67441
      C   19    0.05718      0.99950     1.93261    0.01071     2.94282
      C   20   -0.02414      0.99940     2.01456    0.01018     3.02414
      C   21   -0.01766      0.99941     2.00988    0.00837     3.01766
      C   22    0.05825      0.99952     1.93155    0.01068     2.94175
      C   23   -0.31693      0.99970     2.31369    0.00354     3.31693
      C   24   -0.21945      0.99968     2.21191    0.00787     3.21945
      C   25   -0.25659      0.99964     2.24823    0.00872     3.25659
      C   26    0.37990      0.99975     1.60280    0.01756     2.62010
      O   27   -0.29451      0.99989     3.28265    0.01197     4.29451
      O   28   -0.31466      0.99980     3.29936    0.01550     4.31466
      N   29   -0.17545      0.99970     2.65638    0.01937     3.67545
      C   30    0.04530      0.99951     1.94473    0.01046     2.95470
      C   31    0.04133      0.99944     1.95088    0.00835     2.95867
      C   32   -0.12041      0.99947     2.11102    0.00992     3.12041
      C   33    0.07854      0.99952     1.91206    0.00989     2.92146
      C   34   -0.31972      0.99970     2.31627    0.00375     3.31972
      C   35    0.37786      0.99962     1.61471    0.00781     2.62214
      C   36   -0.35788      0.99968     2.35128    0.00691     3.35788
      N   37   -0.17000      0.99969     2.65186    0.01846     3.67000
      C   38    0.04577      0.99951     1.94422    0.01050     2.95423
      C   39    0.06245      0.99941     1.92970    0.00844     2.93755
      C   40   -0.11994      0.99946     2.11050    0.00998     3.11994
      C   41    0.09331      0.99953     1.89708    0.01009     2.90669
      C   42   -0.32337      0.99970     2.31998    0.00369     3.32337
      C   43    0.36555      0.99960     1.62664    0.00821     2.63445
      C   44   -0.35554      0.99967     2.34875    0.00712     3.35554
      N   45   -0.19471      0.99970     2.67541    0.01960     3.69471
      C   46    0.05663      0.99951     1.93348    0.01038     2.94337
      C   47   -0.02210      0.99942     2.01409    0.00859     3.02210
      C   48   -0.03315      0.99942     2.02445    0.00928     3.03315
      C   49    0.05251      0.99951     1.93780    0.01019     2.94749
      C   50   -0.31721      0.99970     2.31372    0.00380     3.31721
      C   51   -0.20439      0.99966     2.19841    0.00632     3.20439
      C   52   -0.25038      0.99963     2.24235    0.00840     3.25038
      C   53    0.38407      0.99975     1.59798    0.01820     2.61593
      O   54   -0.34595      0.99979     3.33129    0.01487     4.34595
      O   55   -0.28007      0.99989     3.26832    0.01186     4.28007
      H   56    0.10692      0.00000     0.39232    0.00076     0.39308
      H   57    0.11608      0.00000     0.38344    0.00048     0.38392
      H   58    0.10968      0.00000     0.38957    0.00075     0.39032
      H   59    0.11591      0.00000     0.38290    0.00120     0.38409
      H   60    0.20510      0.00000     0.29410    0.00080     0.29490
      H   61    0.11128      0.00000     0.38785    0.00087     0.38872
      H   62    0.11634      0.00000     0.38320    0.00046     0.38366
      H   63    0.10808      0.00000     0.39118    0.00075     0.39192
      H   64    0.10889      0.00000     0.39037    0.00074     0.39111
      H   65    0.20564      0.00000     0.29356    0.00079     0.29436
      H   66    0.11150      0.00000     0.38772    0.00079     0.38850
      H   67    0.11568      0.00000     0.38348    0.00084     0.38432
      H   68    0.14276      0.00000     0.35661    0.00063     0.35724
      H   69    0.11865      0.00000     0.38076    0.00059     0.38135
      H   70    0.11879      0.00000     0.38071    0.00050     0.38121
      H   71    0.14296      0.00000     0.35649    0.00055     0.35704
      H   72    0.10895      0.00000     0.39044    0.00061     0.39105
      H   73    0.12906      0.00000     0.37026    0.00069     0.37094
      H   74    0.07888      0.00000     0.41993    0.00119     0.42112
      H   75    0.07688      0.00000     0.42199    0.00113     0.42312
      H   76    0.11113      0.00000     0.38811    0.00075     0.38887
      H   77    0.11348      0.00000     0.38585    0.00067     0.38652
      H   78    0.10853      0.00000     0.39079    0.00068     0.39147
      H   79    0.11044      0.00000     0.38843    0.00113     0.38956
      H   80    0.10955      0.00000     0.38965    0.00080     0.39045
      H   81    0.11231      0.00000     0.38691    0.00078     0.38769
      H   82    0.10687      0.00000     0.39254    0.00059     0.39313
      H   83    0.10637      0.00000     0.39230    0.00133     0.39363
      H   84    0.11037      0.00000     0.38878    0.00085     0.38963
      H   85    0.11055      0.00000     0.38861    0.00084     0.38945
      H   86    0.10397      0.00000     0.39529    0.00074     0.39603
      H   87    0.10908      0.00000     0.38971    0.00121     0.39092
      H   88    0.10565      0.00000     0.39325    0.00110     0.39435
      H   89    0.10925      0.00000     0.38986    0.00089     0.39075
      H   90    0.11082      0.00000     0.38839    0.00080     0.38918
      H   91    0.10865      0.00000     0.39078    0.00058     0.39135
      H   92    0.10487      0.00000     0.39433    0.00080     0.39513
      H   93    0.11567      0.00000     0.38361    0.00072     0.38433
      H   94    0.25787      0.00000     0.24097    0.00115     0.24213
      H   95    0.10550      0.00000     0.39357    0.00093     0.39450
      H   96    0.11291      0.00000     0.38597    0.00112     0.38709
      H   97    0.09637      0.00000     0.40259    0.00104     0.40363
      H   98    0.10814      0.00000     0.39099    0.00087     0.39186
      H   99    0.12071      0.00000     0.37864    0.00066     0.37929
      H  100    0.12165      0.00000     0.37769    0.00066     0.37835
      H  101    0.25045      0.00000     0.24861    0.00094     0.24955
 =======================================================================
   * Total *    2.00000     62.97273   140.38983    0.63745   204.00000

 Normal termination of Gaussian 16 at Tue Apr 11 18:30:31 2023.
