 Gaussian 16, Revision A.03,
 Gaussian 16:  ES64L-G16RevA.03 25-Dec-2016

 ----------------------------------------------------------------------
 # PBE1PBE/def2TZVP empiricaldispersion=GD3BJ scf=maxcycle=999 geom=che
 ck pop=nbo
 ----------------------------------------------------------------------

 ----------
 1jbq_III_H
 ----------
 Structure from the checkpoint file:  "1jbq_III_H.chk"
 Charge =  1 Multiplicity = 6

                         Standard orientation:
 ---------------------------------------------------------------------
 Center     Atomic      Atomic             Coordinates (Angstroms)
 Number     Number       Type             X           Y           Z
 ---------------------------------------------------------------------
      1          6           0       -1.078762   -0.496773   -3.134535
      2         16           0        0.244926    0.204440   -2.173000
      3          6           0        3.242665   -0.056858    4.923379
      4          6           0        2.201657   -0.157349    3.856340
      5          7           0        0.910195   -0.560008    4.115252
      6          6           0        2.256656    0.105124    2.530199
      7          6           0        0.214648   -0.541385    2.993555
      8          7           0        1.007397   -0.142348    2.017380
      9          6           0       -2.382947   -0.284083    0.289028
     10          6           0        0.562368    3.434526   -0.130963
     11          6           0        4.316898    0.484535   -0.651212
     12          6           0        1.337982   -3.295291   -0.340100
     13          6           0       -1.924517    0.996042    0.246686
     14          6           0       -2.735492    2.186845    0.413283
     15          6           0       -1.916658    3.241418    0.283654
     16          6           0       -0.563806    2.719354    0.045625
     17          6           0       -2.283246    4.746817    0.367098
     18          6           0       -4.248916    2.159846    0.692638
     19          6           0       -5.149224    2.555658   -0.452600
     20          6           0       -6.593207    2.680625    0.013928
     21          8           0       -7.165264    1.561477    0.308457
     22          8           0       -7.108024    3.810139    0.094553
     23          6           0        1.823312    2.978921   -0.325337
     24          6           0        2.986585    3.837512   -0.495607
     25          6           0        4.069760    3.004154   -0.634578
     26          6           0        3.565599    1.651061   -0.561103
     27          6           0        2.935741    5.380519   -0.496675
     28          6           0        5.576025    3.343730   -0.830149
     29          6           0        6.013694    4.268773   -1.980950
     30          6           0        3.833952   -0.810735   -0.603710
     31          6           0        4.683771   -2.008219   -0.733084
     32          6           0        3.848917   -3.082900   -0.655463
     33          6           0        2.502234   -2.552030   -0.470598
     34          6           0        6.228799   -1.932376   -0.927847
     35          6           0        4.124650   -4.618421   -0.739396
     36          6           0        5.444631   -5.194640   -0.194216
     37          6           0        0.050017   -2.827717   -0.152563
     38          6           0       -1.158333   -3.637419   -0.018440
     39          6           0       -2.204217   -2.782745    0.161986
     40          6           0       -1.649640   -1.443040    0.137008
     41          6           0       -1.201846   -5.176604   -0.080644
     42          6           0       -3.696479   -3.139567    0.351023
     43          6           0       -4.548623   -2.593401   -0.858992
     44          6           0       -6.036265   -2.857935   -0.764566
     45          8           0       -6.568767   -3.075803    0.340470
     46          8           0       -6.649401   -2.806855   -1.857982
     47          7           0       -0.613013    1.354768    0.043787
     48          7           0        2.199669    1.652064   -0.379240
     49          7           0        2.518656   -1.167315   -0.439098
     50          7           0       -0.272516   -1.467185   -0.068155
     51         26           0        0.960786    0.073685   -0.217394
     52          1           0        2.966058   -0.676108    5.750977
     53          1           0        4.184926   -0.381695    4.534117
     54          1           0        3.322524    0.959195    5.249199
     55          1           0        0.555333   -0.824789    5.011892
     56          1           0       -0.817419   -0.805254    2.893007
     57          1           0        3.112722    0.442159    1.983887
     58          1           0       -2.007043   -0.352048   -2.622432
     59          1           0       -1.119477   -0.015826   -4.089486
     60          1           0       -0.905467   -1.543961   -3.269688
     61          1           0        0.008007    0.013029   -0.898899
     62          1           0       -1.771739   -5.550920    0.743983
     63          1           0       -1.658372   -5.483710   -0.998343
     64          1           0       -0.205640   -5.563883   -0.030764
     65          1           0       -4.052283   -2.701688    1.260180
     66          1           0       -3.801515   -4.202982    0.405938
     67          1           0       -4.398643   -1.536073   -0.925800
     68          1           0       -4.183323   -3.044042   -1.758091
     69          1           0       -6.055210   -2.986804    1.146658
     70          1           0       -3.432156   -0.406219    0.459739
     71          1           0       -4.512355    1.167188    0.992852
     72          1           0       -4.446046    2.819441    1.511768
     73          1           0       -4.824194    3.495597   -0.847277
     74          1           0       -5.090266    1.812241   -1.219903
     75          1           0       -7.308330    1.322723    1.227222
     76          1           0       -1.938595    5.146780    1.297767
     77          1           0       -1.818631    5.272365   -0.440883
     78          1           0       -3.345308    4.859421    0.301951
     79          1           0        0.447271    4.498212   -0.115945
     80          1           0        3.366679    5.752206    0.409438
     81          1           0        3.487167    5.754970   -1.333703
     82          1           0        1.918139    5.703800   -0.566500
     83          1           0        6.307461    2.934459   -0.165019
     84          1           0        6.426617    5.232089   -1.765507
     85          1           0        5.904867    3.948180   -2.995976
     86          1           0        5.374060    0.600392   -0.769050
     87          1           0        6.713925   -2.482504   -0.148802
     88          1           0        6.489712   -2.352352   -1.876765
     89          1           0        6.543103   -0.910220   -0.891640
     90          1           0        3.396362   -5.269695   -1.175674
     91          1           0        5.564287   -5.356018    0.856754
     92          1           0        6.242106   -5.433621   -0.866393
     93          1           0        1.450072   -4.358203   -0.390637
 ---------------------------------------------------------------------

 SCF Done:  E(UPBE1PBE) =  -3800.29714518     A.U. after   45 cycles

 Alpha virt. eigenvalues --    0.70731   0.71184   0.71744   0.71830   0.71900
 Alpha virt. eigenvalues --    0.72317   0.72503   0.72643   0.73135   0.73214
 Alpha virt. eigenvalues --    0.73653   0.74426   0.74539   0.74763   0.75093

  Beta  occ. eigenvalues -- -256.53780 -89.12919 -30.28589 -26.12124 -26.11738
  Beta  occ. eigenvalues --  -26.10667 -19.35503 -19.32670 -19.26378 -19.24674
  Beta  occ. eigenvalues --  -14.55025 -14.51158 -14.50726 -14.50507 -14.50214
  Beta  occ. eigenvalues --  -14.49034 -10.43183 -10.42990 -10.38718 -10.37359
  Beta  occ. eigenvalues --  -10.37328 -10.37010 -10.36799 -10.36727 -10.36634
  Beta  occ. eigenvalues --  -10.36489 -10.36222 -10.36135 -10.35216 -10.35031
  Beta  occ. eigenvalues --  -10.34580 -10.34577 -10.34526 -10.34460 -10.34436
  Beta  occ. eigenvalues --  -10.34368 -10.34286 -10.33926 -10.33650 -10.33629
  Beta  occ. eigenvalues --  -10.33576 -10.33301 -10.33277 -10.33229 -10.32993
  Beta  occ. eigenvalues --  -10.32760 -10.32448 -10.32407 -10.31714 -10.31601
  Beta  occ. eigenvalues --  -10.31406 -10.30931 -10.30816 -10.30751 -10.30564
  Beta  occ. eigenvalues --   -8.11391  -6.05007  -6.04507  -6.04133  -3.60373
  Beta  occ. eigenvalues --   -2.37546  -2.35634  -2.33106  -1.25545  -1.22170
  Beta  occ. eigenvalues --   -1.17019  -1.10733  -1.10548  -1.09893  -1.09195
  Beta  occ. eigenvalues --   -1.09103  -1.08028  -1.01220  -0.95740  -0.95101
  Beta  occ. eigenvalues --   -0.94051  -0.92991  -0.92729  -0.92371  -0.91783
  Beta  occ. eigenvalues --   -0.91332  -0.91248  -0.89308  -0.88905  -0.87379
  Beta  occ. eigenvalues --   -0.85943  -0.83822  -0.83178  -0.82851  -0.82359
  Beta  occ. eigenvalues --   -0.81602  -0.81089  -0.80215  -0.80049  -0.78925
  Beta  occ. eigenvalues --   -0.78174  -0.77403  -0.76957  -0.76239  -0.75021
  Beta  occ. eigenvalues --   -0.73314  -0.72671  -0.71608  -0.70909  -0.70089
  Beta  occ. eigenvalues --   -0.69893  -0.67428  -0.66838  -0.66201  -0.65670
  Beta  occ. eigenvalues --   -0.64974  -0.63616  -0.63235  -0.63116  -0.62500
  Beta  occ. eigenvalues --   -0.62084  -0.61141  -0.60339  -0.59951  -0.59441
  Beta  occ. eigenvalues --   -0.59314  -0.58301  -0.58128  -0.57450  -0.56991
  Beta  occ. eigenvalues --   -0.56511  -0.56035  -0.55788  -0.55620  -0.55390
  Beta  occ. eigenvalues --   -0.55173  -0.54998  -0.54837  -0.54638  -0.54452
  Beta  occ. eigenvalues --   -0.54224  -0.53886  -0.53802  -0.53635  -0.53397
  Beta  occ. eigenvalues --   -0.53005  -0.52815  -0.52522  -0.52114  -0.51990
  Beta  occ. eigenvalues --   -0.51766  -0.51605  -0.51383  -0.51282  -0.51091
  Beta  occ. eigenvalues --   -0.50913  -0.50827  -0.50452  -0.50103  -0.49984
  Beta  occ. eigenvalues --   -0.49706  -0.49436  -0.49345  -0.49162  -0.48821
  Beta  occ. eigenvalues --   -0.48741  -0.48556  -0.48368  -0.47817  -0.47300
  Beta  occ. eigenvalues --   -0.46896  -0.46585  -0.46314  -0.45980  -0.45639
  Beta  occ. eigenvalues --   -0.45002  -0.44841  -0.44562  -0.44103  -0.42825
  Beta  occ. eigenvalues --   -0.42360  -0.41858  -0.41307  -0.39960  -0.39861
  Beta  occ. eigenvalues --   -0.39483  -0.38861  -0.38481  -0.36587  -0.36151
  Beta  occ. eigenvalues --   -0.35851  -0.35387  -0.34666  -0.34195  -0.33271
  Beta  occ. eigenvalues --   -0.31424  -0.30589  -0.29157
  Beta virt. eigenvalues --   -0.22050  -0.21746  -0.18914  -0.18146  -0.16625
  Beta virt. eigenvalues --   -0.15893  -0.15448  -0.13399  -0.13234  -0.10774
  Beta virt. eigenvalues --   -0.08954  -0.08635  -0.08045  -0.07192  -0.06502

 Mulliken charges and spin densities:
               1          2
     1  C   -0.358136   0.026699
     2  S   -0.081857   0.460694
     3  C   -0.351269   0.000939
     4  C    0.097366   0.003148
     5  N   -0.204185   0.003538
     6  C   -0.160271   0.001179
     7  C    0.046569  -0.000277
     8  N   -0.139085   0.068565
     9  C   -0.548382  -0.026102
    10  C   -0.445754   0.017432
    11  C   -0.479160   0.039773
    12  C   -0.474019  -0.000391
    13  C    0.375642   0.019855
    14  C    0.008046  -0.006826
    15  C   -0.076449   0.006650
    16  C    0.241123  -0.005833
    17  C   -0.388017  -0.000040
    18  C   -0.479924   0.000708
    19  C   -0.136608  -0.000281
    20  C    0.310978  -0.000029
    21  O   -0.375586   0.000005
    22  O   -0.304436   0.000000
    23  C    0.364694  -0.008420
    24  C   -0.073948   0.003304
    25  C    0.022743   0.013784
    26  C    0.210340  -0.019864
    27  C   -0.365627  -0.000176
    28  C   -0.293806   0.002142
    29  C   -0.312788  -0.005330
    30  C    0.337846  -0.041998
    31  C   -0.061634   0.208202
    32  C   -0.071636  -0.156405
    33  C    0.281280   0.024717
    34  C   -0.360044  -0.013424
    35  C   -0.181414   0.892518
    36  C   -0.301787   1.032119
    37  C    0.329964   0.007248
    38  C   -0.096912   0.011071
    39  C    0.079057   0.004887
    40  C    0.146067   0.023094
    41  C   -0.404377  -0.000608
    42  C   -0.412780  -0.000897
    43  C   -0.216400   0.000372
    44  C    0.283706   0.000129
    45  O   -0.257828   0.000010
    46  O   -0.352090   0.000158
    47  N   -0.011135  -0.004324
    48  N    0.031627  -0.039796
    49  N    0.085142   0.002972
    50  N    0.061884  -0.021191
    51  Fe  -0.224824   2.511451
    52  H    0.132674   0.000108
    53  H    0.153517  -0.000019
    54  H    0.158544   0.000001
    55  H    0.244428   0.001577
    56  H    0.164320   0.000840
    57  H    0.157931   0.000476
    58  H    0.161386   0.010862
    59  H    0.188476   0.010127
    60  H    0.163832   0.011145
    61  H    0.172833  -0.042144
    62  H    0.150353   0.000296
    63  H    0.163301   0.000648
    64  H    0.139306   0.000027
    65  H    0.121310   0.000232
    66  H    0.163191  -0.000115
    67  H    0.127290  -0.000023
    68  H    0.148853   0.000008
    69  H    0.335490   0.000007
    70  H    0.112428   0.000480
    71  H    0.103661  -0.000112
    72  H    0.152427  -0.000259
    73  H    0.133382   0.000018
    74  H    0.127653   0.000040
    75  H    0.352334  -0.000007
    76  H    0.157932   0.000297
    77  H    0.146178   0.000181
    78  H    0.156495  -0.000044
    79  H    0.115275  -0.001089
    80  H    0.156229   0.000190
    81  H    0.159011  -0.000078
    82  H    0.129494  -0.000076
    83  H    0.164212   0.000568
    84  H    0.169948   0.000255
    85  H    0.170329   0.000323
    86  H    0.107950  -0.001853
    87  H    0.154487   0.006291
    88  H    0.155687   0.007684
    89  H    0.130712   0.001888
    90  H    0.159838  -0.017106
    91  H    0.160603  -0.015529
    92  H    0.163729  -0.016415
    93  H    0.101067   0.005147
 Sum of Mulliken charges =   1.00000   5.00000

 Dipole moment (field-independent basis, Debye):
    X=              9.0043    Y=             -2.9020    Z=              8.0722  Tot=             12.4362
 Quadrupole moment (field-independent basis, Debye-Ang):
   XX=           -288.5493   YY=           -256.2936   ZZ=           -261.5356
   XY=             12.0238   XZ=            -29.3429   YZ=            -12.4469

 Summary of Natural Population Analysis:

                                       Natural Population
                Natural  -----------------------------------------------
    Atom  No    Charge         Core      Valence    Rydberg      Total
 -----------------------------------------------------------------------
      C    1   -0.36195      0.99963     2.35508    0.00724     3.36195
      S    2    0.48697      4.99849     2.49180    0.02274     7.51303
      C    3   -0.32079      0.99969     2.31789    0.00321     3.32079
      C    4    0.06143      0.99955     1.92980    0.00922     2.93857
      N    5   -0.23403      0.99968     2.72425    0.01011     3.73403
      C    6   -0.04214      0.99944     2.03400    0.00870     3.04214
      C    7    0.09465      0.99967     1.89605    0.00963     2.90535
      N    8   -0.14742      0.99971     2.62730    0.02041     3.64742
      C    9   -0.13569      0.99945     2.12726    0.00898     3.13569
      C   10   -0.10319      0.99943     2.09540    0.00837     3.10319
      C   11   -0.09612      0.99948     2.08870    0.00793     3.09612
      C   12   -0.11544      0.99949     2.10811    0.00784     3.11544
      C   13    0.07835      0.99949     1.91143    0.01072     2.92165
      C   14   -0.01641      0.99938     2.00718    0.00985     3.01641
      C   15    0.01112      0.99939     1.98160    0.00790     2.98888
      C   16    0.07880      0.99949     1.91127    0.01044     2.92120
      C   17   -0.32066      0.99969     2.31740    0.00356     3.32066
      C   18   -0.20919      0.99965     2.20284    0.00670     3.20919
      C   19   -0.25056      0.99962     2.24216    0.00878     3.25056
      C   20    0.38579      0.99975     1.59693    0.01753     2.61421
      O   21   -0.34964      0.99982     3.33605    0.01376     4.34964
      O   22   -0.26657      0.99989     3.25459    0.01209     4.26657
      C   23    0.07602      0.99949     1.91422    0.01027     2.92398
      C   24    0.02091      0.99944     1.97149    0.00816     2.97909
      C   25   -0.03627      0.99938     2.02694    0.00996     3.03627
      C   26    0.07831      0.99952     1.91221    0.00996     2.92169
      C   27   -0.31804      0.99969     2.31457    0.00378     3.31804
      C   28   -0.10261      0.99972     2.09546    0.00743     3.10261
      C   29   -0.17448      0.99975     2.16824    0.00649     3.17448
      C   30    0.06369      0.99952     1.92670    0.01008     2.93631
      C   31    0.10012      0.99941     1.89279    0.00767     2.89988
      C   32   -0.09677      0.99936     2.08855    0.00886     3.09677
      C   33    0.10875      0.99952     1.88210    0.00963     2.89125
      C   34   -0.31915      0.99969     2.31607    0.00339     3.31915
      C   35    0.34700      0.99973     1.64886    0.00441     2.65300
      C   36    0.33599      0.99976     1.66050    0.00375     2.66401
      C   37    0.08543      0.99951     1.90469    0.01037     2.91457
      C   38    0.00719      0.99943     1.98552    0.00787     2.99281
      C   39   -0.01196      0.99940     2.00266    0.00990     3.01196
      C   40    0.07873      0.99949     1.91125    0.01053     2.92127
      C   41   -0.31875      0.99969     2.31542    0.00364     3.31875
      C   42   -0.21993      0.99967     2.21328    0.00698     3.21993
      C   43   -0.25290      0.99963     2.24476    0.00851     3.25290
      C   44    0.37577      0.99973     1.60734    0.01717     2.62423
      O   45   -0.30721      0.99980     3.29177    0.01564     4.30721
      O   46   -0.28395      0.99990     3.27208    0.01197     4.28395
      N   47   -0.18443      0.99964     2.66162    0.02318     3.68443
      N   48   -0.19352      0.99968     2.67299    0.02085     3.69352
      N   49   -0.17245      0.99968     2.65178    0.02100     3.67245
      N   50   -0.19383      0.99964     2.67186    0.02233     3.69383
     Fe   51    1.17442      8.98385     2.81677    0.02496    11.82558
      H   52    0.11168      0.00000     0.38773    0.00060     0.38832
      H   53    0.11963      0.00000     0.37987    0.00050     0.38037
      H   54    0.11764      0.00000     0.38173    0.00063     0.38236
      H   55    0.21193      0.00000     0.28727    0.00080     0.28807
      H   56    0.10995      0.00000     0.38924    0.00081     0.39005
      H   57    0.11673      0.00000     0.38247    0.00080     0.38327
      H   58    0.12529      0.00000     0.37375    0.00096     0.37471
      H   59    0.13413      0.00000     0.36553    0.00034     0.36587
      H   60    0.12494      0.00000     0.37447    0.00058     0.37506
      H   61    0.09025      0.00000     0.39713    0.01262     0.40975
      H   62    0.11504      0.00000     0.38428    0.00068     0.38496
      H   63    0.11760      0.00000     0.38174    0.00067     0.38240
      H   64    0.11209      0.00000     0.38735    0.00056     0.38791
      H   65    0.09855      0.00000     0.40043    0.00102     0.40145
      H   66    0.11681      0.00000     0.38251    0.00068     0.38319
      H   67    0.11402      0.00000     0.38532    0.00067     0.38598
      H   68    0.12409      0.00000     0.37523    0.00068     0.37591
      H   69    0.24898      0.00000     0.25008    0.00094     0.25102
      H   70    0.11129      0.00000     0.38739    0.00132     0.38871
      H   71    0.10175      0.00000     0.39705    0.00119     0.39825
      H   72    0.11447      0.00000     0.38470    0.00082     0.38553
      H   73    0.11596      0.00000     0.38334    0.00070     0.38404
      H   74    0.11246      0.00000     0.38680    0.00075     0.38754
      H   75    0.25803      0.00000     0.24080    0.00118     0.24197
      H   76    0.11584      0.00000     0.38347    0.00069     0.38416
      H   77    0.11434      0.00000     0.38503    0.00063     0.38566
      H   78    0.11641      0.00000     0.38287    0.00072     0.38359
      H   79    0.11454      0.00000     0.38407    0.00139     0.38546
      H   80    0.11829      0.00000     0.38099    0.00072     0.38171
      H   81    0.12110      0.00000     0.37822    0.00068     0.37890
      H   82    0.10830      0.00000     0.39114    0.00056     0.39170
      H   83    0.10704      0.00000     0.39188    0.00108     0.39296
      H   84    0.10063      0.00000     0.39849    0.00088     0.39937
      H   85    0.10099      0.00000     0.39802    0.00099     0.39901
      H   86    0.11503      0.00000     0.38357    0.00140     0.38497
      H   87    0.12017      0.00000     0.37923    0.00060     0.37983
      H   88    0.12098      0.00000     0.37839    0.00062     0.37902
      H   89    0.10877      0.00000     0.39069    0.00054     0.39123
      H   90    0.10085      0.00000     0.39842    0.00072     0.39915
      H   91    0.09285      0.00000     0.40659    0.00056     0.40715
      H   92    0.09338      0.00000     0.40601    0.00061     0.40662
      H   93    0.11379      0.00000     0.38483    0.00138     0.38621
 =======================================================================
   * Total *    3.00000     62.96262   129.44764    0.58974   193.00000

 Normal termination of Gaussian 16 at Fri Sep 30 08:04:47 2022.
