 Gaussian 16, Revision A.03,

 ----------------------------------------------------------------------
 # PBE1PBE/def2TZVP empiricaldispersion=GD3BJ int=(grid=ultrafine) geom
 =check guess=read pop=nbo
 ----------------------------------------------------------------------

 -------------
 1f1f_II_S_nbo
 -------------
 Structure from the checkpoint file:  "1f1f_II_S.chk"
 Charge =  0 Multiplicity = 1

 SCF Done:  E(RPBE1PBE) =  -3881.43868328     A.U. after    2 cycles

 Summary of Natural Population Analysis:

                                       Natural Population
                Natural  -----------------------------------------------
    Atom  No    Charge         Core      Valence    Rydberg      Total
 -----------------------------------------------------------------------
      C    1   -0.63806      1.99939     4.63227    0.00639     6.63806
      C    2    0.09589      1.99908     3.88585    0.01918     5.90411
      N    3   -0.48078      1.99936     5.46102    0.02040     7.48078
      C    4   -0.06288      1.99885     4.04540    0.01863     6.06288
      C    5    0.18959      1.99930     3.79078    0.02032     5.81041
      N    6   -0.31943      1.99935     5.26589    0.05420     7.31943
      C    7   -0.61573      1.99942     4.60418    0.01214     6.61573
      C    8   -0.52119      1.99934     4.49889    0.02296     6.52119
      S    9    0.61454      9.99823     5.33414    0.05309    15.38546
      C   10   -1.39871      1.99905     5.32593    0.07373     7.39871
     Fe   11   -0.07796     17.98859     8.03926    0.05010    26.07796
      C   12   -0.25643      1.99895     4.24030    0.01719     6.25643
      C   13   -0.26596      1.99899     4.24956    0.01741     6.26596
      C   14   -0.24989      1.99898     4.23465    0.01627     6.24989
      C   15   -0.23828      1.99896     4.22185    0.01747     6.23828
      N   16   -0.35738      1.99936     5.31079    0.04722     7.35738
      C   17    0.15589      1.99908     3.82474    0.02030     5.84411
      C   18   -0.04029      1.99885     4.02162    0.01982     6.04029
      C   19    0.03032      1.99863     3.94882    0.02224     5.96968
      C   20    0.11358      1.99903     3.86603    0.02136     5.88642
      C   21   -1.24282      1.99911     5.18060    0.06311     7.24282
      C   22   -0.41088      1.99933     4.39877    0.01279     6.41088
      C   23   -0.49792      1.99928     4.48195    0.01669     6.49792
      C   24    0.76514      1.99954     3.19791    0.03741     5.23486
      O   25   -0.61521      1.99978     6.59095    0.02447     8.61521
      O   26   -0.65826      1.99961     6.63129    0.02736     8.65826
      N   27   -0.40049      1.99940     5.35521    0.04588     7.40049
      C   28    0.14209      1.99906     3.83821    0.02065     5.85791
      C   29   -0.02725      1.99892     4.01137    0.01696     6.02725
      C   30   -0.03808      1.99895     4.01921    0.01992     6.03808
      C   31    0.14313      1.99908     3.83651    0.02128     5.85687
      C   32   -0.63866      1.99939     4.63160    0.00767     6.63866
      C   33   -0.45031      1.99922     4.43317    0.01792     6.45031
      C   34   -0.58532      1.99932     4.57206    0.01394     6.58532
      N   35   -0.36080      1.99940     5.31368    0.04773     7.36080
      C   36    0.15308      1.99906     3.82757    0.02029     5.84692
      C   37   -0.01736      1.99897     4.00235    0.01603     6.01736
      C   38   -0.02808      1.99900     4.00958    0.01950     6.02808
      C   39    0.16536      1.99908     3.81477    0.02079     5.83464
      C   40   -0.63728      1.99938     4.63045    0.00745     6.63728
      C   41   -0.45375      1.99920     4.43576    0.01879     6.45375
      C   42   -0.58720      1.99927     4.57300    0.01493     6.58720
      N   43   -0.37485      1.99937     5.32885    0.04662     7.37485
      C   44    0.13496      1.99900     3.84509    0.02095     5.86504
      C   45   -0.03180      1.99882     4.01577    0.01721     6.03180
      C   46   -0.03976      1.99884     4.02195    0.01896     6.03976
      C   47    0.12467      1.99897     3.85519    0.02116     5.87533
      C   48   -0.63654      1.99939     4.62967    0.00748     6.63654
      C   49   -0.42033      1.99933     4.40764    0.01337     6.42033
      C   50   -0.49253      1.99927     4.47605    0.01721     6.49253
      C   51    0.76520      1.99952     3.19827    0.03701     5.23480
      O   52   -0.67374      1.99961     6.64592    0.02821     8.67374
      O   53   -0.59495      1.99979     6.57124    0.02393     8.59495
      H   54    0.23184      0.00000     0.76700    0.00116     0.76816
      H   55    0.22874      0.00000     0.76996    0.00130     0.77126
      H   56    0.21337      0.00000     0.78540    0.00123     0.78663
      H   57    0.23771      0.00000     0.76054    0.00175     0.76229
      H   58    0.22713      0.00000     0.77095    0.00192     0.77287
      H   59    0.21640      0.00000     0.78246    0.00114     0.78360
      H   60    0.22521      0.00000     0.77258    0.00221     0.77479
      H   61    0.21004      0.00000     0.78861    0.00135     0.78996
      H   62    0.22758      0.00000     0.77035    0.00207     0.77242
      H   63    0.21662      0.00000     0.78051    0.00287     0.78338
      H   64    0.40710      0.00000     0.59113    0.00177     0.59290
      H   65    0.40033      0.00000     0.59704    0.00264     0.59967
      H   66    0.40910      0.00000     0.58643    0.00447     0.59090
      H   67    0.21218      0.00000     0.78496    0.00286     0.78782
      H   68    0.20852      0.00000     0.78726    0.00422     0.79148
      H   69    0.21470      0.00000     0.78275    0.00255     0.78530
      H   70    0.21270      0.00000     0.78492    0.00238     0.78730
      H   71    0.38012      0.00000     0.61822    0.00166     0.61988
      H   72    0.41604      0.00000     0.58014    0.00381     0.58396
      H   73    0.42052      0.00000     0.57716    0.00232     0.57948
      H   74    0.23173      0.00000     0.76550    0.00276     0.76827
      H   75    0.23345      0.00000     0.76445    0.00210     0.76655
      H   76    0.24166      0.00000     0.75676    0.00157     0.75834
      H   77    0.21630      0.00000     0.78190    0.00180     0.78370
      H   78    0.21881      0.00000     0.77949    0.00169     0.78119
      H   79    0.22039      0.00000     0.77789    0.00171     0.77961
      H   80    0.21680      0.00000     0.78197    0.00123     0.78320
      H   81    0.20758      0.00000     0.79028    0.00213     0.79242
      H   82    0.20800      0.00000     0.79039    0.00162     0.79200
      H   83    0.21116      0.00000     0.78765    0.00119     0.78884
      H   84    0.22443      0.00000     0.77401    0.00157     0.77557
      H   85    0.21504      0.00000     0.78343    0.00153     0.78496
      H   86    0.21457      0.00000     0.78386    0.00156     0.78543
      H   87    0.20924      0.00000     0.78870    0.00206     0.79076
      H   88    0.21027      0.00000     0.78819    0.00154     0.78973
      H   89    0.20991      0.00000     0.78883    0.00126     0.79009
      H   90    0.21707      0.00000     0.78124    0.00168     0.78293
      H   91    0.22088      0.00000     0.77749    0.00163     0.77912
      H   92    0.22215      0.00000     0.77644    0.00141     0.77785
      H   93    0.22485      0.00000     0.77290    0.00225     0.77515
      H   94    0.22218      0.00000     0.77593    0.00189     0.77782
      H   95    0.22613      0.00000     0.77204    0.00183     0.77387
      H   96    0.23381      0.00000     0.76431    0.00188     0.76619
      H   97    0.41277      0.00000     0.58549    0.00174     0.58723
      H   98    0.51275      0.00000     0.48422    0.00302     0.48725
      H   99    0.51736      0.00000     0.48006    0.00258     0.48264
      H  100    0.20081      0.00000     0.79772    0.00147     0.79919
      H  101    0.21388      0.00000     0.78356    0.00255     0.78612
      H  102    0.21149      0.00000     0.78570    0.00280     0.78851
      H  103    0.20230      0.00000     0.79629    0.00142     0.79770
 =======================================================================
   * Total *    0.00000    129.94602   280.63868    1.41530   412.00000

 Normal termination of Gaussian 16 at Mon Sep 12 21:35:18 2022.
 Gaussian 16:  ES64L-G16RevA.03 25-Dec-2016

 ----------------------------------------------------------------------
 # PBE1PBE/def2TZVP empiricaldispersion=GD3BJ int=(grid=ultrafine) geom
 =check guess=read scrf=(smd,solvent=Chloroform)
 ----------------------------------------------------------------------

 --------------
 1f1f_II_S_solv
 --------------
 Structure from the checkpoint file:  "1f1f_II_S.chk"
 Charge =  0 Multiplicity = 1

                         Standard orientation:
 ---------------------------------------------------------------------
 Center     Atomic      Atomic             Coordinates (Angstroms)
 Number     Number       Type             X           Y           Z
 ---------------------------------------------------------------------
      1          6           0        2.701855   -1.695484    4.863536
      2          6           0        1.841605   -1.105113    3.786270
      3          7           0        0.532127   -0.721753    3.992615
      4          6           0        2.098814   -0.862301    2.479286
      5          6           0        0.020964   -0.272272    2.862315
      6          7           0        0.950442   -0.346928    1.927392
      7          6           0       -1.218963    2.618193   -2.791159
      8          6           0       -0.521306    1.394438   -3.357544
      9         16           0        0.691682    0.589624   -2.294062
     10          6           0        1.380636   -0.622806   -3.449338
     11         26           0        0.813578   -0.087145   -0.068126
     12          6           0       -2.584210   -0.337665   -0.082105
     13          6           0        1.136760   -3.430197   -0.631943
     14          6           0        4.250752    0.340541   -0.452109
     15          6           0        0.551758    3.183354    0.961997
     16          7           0       -0.458964   -1.582635   -0.260392
     17          6           0       -1.852135   -1.523186   -0.235405
     18          6           0       -2.472282   -2.848731   -0.530313
     19          6           0       -1.400338   -3.687912   -0.832274
     20          6           0       -0.162566   -2.906124   -0.573445
     21          6           0       -1.472236   -5.151343   -1.338077
     22          6           0       -3.975651   -3.214350   -0.344269
     23          6           0       -4.387828   -2.902604    1.092872
     24          6           0       -5.849598   -3.198924    1.400721
     25          8           0       -6.739810   -2.601525    0.763286
     26          8           0       -6.113064   -4.023929    2.300219
     27          7           0        2.373185   -1.295387   -0.370248
     28          6           0        2.323377   -2.688321   -0.530376
     29          6           0        3.661276   -3.227764   -0.776210
     30          6           0        4.523482   -2.156172   -0.814045
     31          6           0        3.727448   -0.955904   -0.542272
     32          6           0        4.061290   -4.702738   -0.884498
     33          6           0        5.897786   -2.224098   -1.081887
     34          6           0        6.341315   -2.343687   -2.398855
     35          7           0        2.109330    1.446176    0.153637
     36          6           0        3.489903    1.473508   -0.128891
     37          6           0        4.079909    2.769200    0.265993
     38          6           0        3.071063    3.478317    0.909414
     39          6           0        1.842803    2.691446    0.735866
     40          6           0        5.466110    3.326042   -0.074466
     41          6           0        3.201769    4.724640    1.573897
     42          6           0        3.396796    5.877769    0.857779
     43          7           0       -0.685273    1.146923    0.340273
     44          6           0       -0.621009    2.489242    0.734844
     45          6           0       -1.940199    3.075384    0.765978
     46          6           0       -2.811471    2.078727    0.439215
     47          6           0       -2.039134    0.898400    0.196110
     48          6           0       -2.308575    4.539859    1.007868
     49          6           0       -4.322616    2.151177    0.257007
     50          6           0       -4.665191    2.926687   -1.003109
     51          6           0       -6.124000    2.792947   -1.396537
     52          8           0       -6.524433    1.703436   -1.880522
     53          8           0       -6.872871    3.778529   -1.212121
     54          1           0        3.130949   -2.611725    4.515282
     55          1           0        3.482903   -1.008037    5.113095
     56          1           0        2.105483   -1.887909    5.730838
     57          1           0        3.023648   -1.038747    1.970907
     58          1           0       -0.976376    0.090723    2.726492
     59          1           0       -2.030592    2.894310   -3.431407
     60          1           0       -1.595113    2.394359   -1.814783
     61          1           0       -0.522863    3.428361   -2.728122
     62          1           0        0.035777    1.752585   -4.197955
     63          1           0       -1.295815    0.669775   -3.498607
     64          1           0        2.282956   -1.197221   -3.421687
     65          1           0        2.097706    0.162985   -3.564411
     66          1           0        1.158803   -1.266623   -2.623995
     67          1           0       -3.647242   -0.396100   -0.189107
     68          1           0        1.231547   -4.487572   -0.765632
     69          1           0        5.295289    0.474591   -0.641515
     70          1           0        0.466164    4.179782    1.342398
     71          1           0       -0.802820   -5.977574   -1.219235
     72          1           0       -0.647107   -4.799696   -1.921521
     73          1           0       -1.578317   -5.319010   -0.286633
     74          1           0       -4.055360   -4.274230   -0.467556
     75          1           0       -4.535743   -2.558459   -0.977518
     76          1           0       -4.276039   -1.844307    1.204282
     77          1           0       -3.820268   -3.568331    1.708975
     78          1           0        4.744334   -4.828211   -1.698504
     79          1           0        4.530444   -5.012811    0.025804
     80          1           0        3.188460   -5.297305   -1.056420
     81          1           0        6.344141   -1.340463   -0.675861
     82          1           0        5.644020   -1.865795   -3.054827
     83          1           0        7.299572   -1.877673   -2.496191
     84          1           0        5.498482    3.593739   -1.109932
     85          1           0        5.659564    4.191711    0.523943
     86          1           0        6.208346    2.581552    0.124830
     87          1           0        2.316148    4.863603    2.158075
     88          1           0        2.928107    5.786536   -0.099773
     89          1           0        2.968656    6.703151    1.387250
     90          1           0       -3.242245    4.756062    0.532037
     91          1           0       -2.394823    4.716915    2.059587
     92          1           0       -1.546389    5.171213    0.601218
     93          1           0       -4.702674    2.720722    1.079244
     94          1           0       -4.659971    1.148003    0.099739
     95          1           0       -4.102826    2.472886   -1.792229
     96          1           0       -4.516074    3.959185   -0.765174
     97          1           0        0.045535   -0.776223    4.864545
     98          1           0       -6.883497   -4.591118    2.220662
     99          1           0       -7.023992    1.697129   -2.700279
    100          1           0        4.445797    6.043359    0.727103
    101          1           0        4.023537    4.633865    2.253130
    102          1           0        6.285724   -3.060772   -0.539319
    103          1           0        6.420603   -3.379335   -2.655850
 ---------------------------------------------------------------------

 SCF Done:  E(RPBE1PBE) =  -3881.51603054     A.U. after   16 cycles

 The electronic state is 1-A.
 Alpha  occ. eigenvalues -- -256.31527 -89.03776 -30.08448 -25.91251 -25.90929
 Alpha  occ. eigenvalues --  -25.90844 -19.25925 -19.25292 -19.17862 -19.17568
 Alpha  occ. eigenvalues --  -14.43494 -14.38554 -14.37976 -14.37514 -14.37165
 Alpha  occ. eigenvalues --  -14.37076 -10.34965 -10.34953 -10.27138 -10.27069
 Alpha  occ. eigenvalues --  -10.25383 -10.25356 -10.25153 -10.24982 -10.24854
 Alpha  occ. eigenvalues --  -10.24807 -10.24581 -10.24332 -10.24072 -10.23505
 Alpha  occ. eigenvalues --  -10.23384 -10.22652 -10.22386 -10.22283 -10.22236
 Alpha  occ. eigenvalues --  -10.22214 -10.22139 -10.22115 -10.22068 -10.22026
 Alpha  occ. eigenvalues --  -10.21981 -10.21767 -10.21609 -10.21528 -10.21398
 Alpha  occ. eigenvalues --  -10.21084 -10.21011 -10.20802 -10.20665 -10.20631
 Alpha  occ. eigenvalues --  -10.19767 -10.18997 -10.18810 -10.18795 -10.18780
 Alpha  occ. eigenvalues --  -10.18527 -10.18081  -8.01386  -5.95226  -5.94717
 Alpha  occ. eigenvalues --   -5.94081  -3.42976  -2.18987  -2.18312  -2.18173
 Alpha  occ. eigenvalues --   -1.16736  -1.15881  -1.05746  -1.02449  -1.02428
 Alpha  occ. eigenvalues --   -0.96859  -0.95838  -0.95347  -0.94243  -0.90053
 Alpha  occ. eigenvalues --   -0.85333  -0.84890  -0.84746  -0.84060  -0.83804
 Alpha  occ. eigenvalues --   -0.83023  -0.81516  -0.80406  -0.80284  -0.79334
 Alpha  occ. eigenvalues --   -0.78597  -0.78487  -0.77727  -0.77313  -0.74909
 Alpha  occ. eigenvalues --   -0.74562  -0.73185  -0.71814  -0.71587  -0.71173
 Alpha  occ. eigenvalues --   -0.70190  -0.69151  -0.68839  -0.68193  -0.65674
 Alpha  occ. eigenvalues --   -0.65417  -0.64451  -0.64031  -0.63592  -0.62963
 Alpha  occ. eigenvalues --   -0.62864  -0.61323  -0.59524  -0.58773  -0.57181
 Alpha  occ. eigenvalues --   -0.55909  -0.55677  -0.54553  -0.54418  -0.53437
 Alpha  occ. eigenvalues --   -0.52298  -0.52069  -0.51735  -0.51008  -0.50772
 Alpha  occ. eigenvalues --   -0.50665  -0.50360  -0.50181  -0.49981  -0.49629
 Alpha  occ. eigenvalues --   -0.49277  -0.48823  -0.48368  -0.48179  -0.47721
 Alpha  occ. eigenvalues --   -0.47633  -0.47357  -0.47119  -0.46860  -0.46388
 Alpha  occ. eigenvalues --   -0.46305  -0.45852  -0.45157  -0.44900  -0.44264
 Alpha  occ. eigenvalues --   -0.44132  -0.43664  -0.43364  -0.43144  -0.42575
 Alpha  occ. eigenvalues --   -0.42401  -0.42130  -0.42048  -0.41914  -0.41834
 Alpha  occ. eigenvalues --   -0.41601  -0.41354  -0.41181  -0.40716  -0.40338
 Alpha  occ. eigenvalues --   -0.40032  -0.39836  -0.39607  -0.39513  -0.39207
 Alpha  occ. eigenvalues --   -0.39167  -0.38919  -0.38493  -0.38392  -0.38187
 Alpha  occ. eigenvalues --   -0.37975  -0.37646  -0.37427  -0.37088  -0.36966
 Alpha  occ. eigenvalues --   -0.36658  -0.36505  -0.35962  -0.35732  -0.35160
 Alpha  occ. eigenvalues --   -0.34661  -0.34409  -0.33793  -0.33669  -0.33246
 Alpha  occ. eigenvalues --   -0.33121  -0.32546  -0.32456  -0.32395  -0.32292
 Alpha  occ. eigenvalues --   -0.31824  -0.30891  -0.30422  -0.29641  -0.28009
 Alpha  occ. eigenvalues --   -0.27957  -0.27747  -0.27420  -0.26583  -0.25453
 Alpha  occ. eigenvalues --   -0.24045  -0.23894  -0.23371  -0.23215  -0.21110
 Alpha  occ. eigenvalues --   -0.20658  -0.19846  -0.18919  -0.18892  -0.18643
 Alpha  occ. eigenvalues --   -0.18147
 Alpha virt. eigenvalues --   -0.07042  -0.06980  -0.02815  -0.01441  -0.00143
 Alpha virt. eigenvalues --    0.00196   0.00713   0.01099   0.02904   0.03265
 Alpha virt. eigenvalues --    0.04104   0.04203   0.04310   0.05003   0.05035

 Mulliken charges:
               1
     1  C   -0.392869
     2  C    0.115881
     3  N   -0.204511
     4  C   -0.218175
     5  C   -0.005587
     6  N    0.013186
     7  C   -0.341193
     8  C   -0.137384
     9  S   -0.013779
    10  C   -0.770121
    11  Fe  -0.419228
    12  C   -0.553865
    13  C   -0.496885
    14  C   -0.501688
    15  C   -0.520532
    16  N    0.060837
    17  C    0.234821
    18  C   -0.073189
    19  C   -0.124466
    20  C    0.224076
    21  C   -0.777967
    22  C   -0.291875
    23  C   -0.149272
    24  C    0.275558
    25  O   -0.432166
    26  O   -0.341158
    27  N   -0.017891
    28  C    0.147217
    29  C   -0.057384
    30  C    0.069833
    31  C    0.146799
    32  C   -0.439286
    33  C   -0.255416
    34  C   -0.369925
    35  N    0.018497
    36  C    0.169082
    37  C   -0.085884
    38  C   -0.039275
    39  C    0.238921
    40  C   -0.403902
    41  C   -0.231751
    42  C   -0.369209
    43  N    0.002142
    44  C    0.204217
    45  C   -0.055962
    46  C    0.029026
    47  C    0.235495
    48  C   -0.424312
    49  C   -0.360136
    50  C   -0.092238
    51  C    0.282553
    52  O   -0.360205
    53  O   -0.418053
    54  H    0.157019
    55  H    0.156205
    56  H    0.142866
    57  H    0.164869
    58  H    0.189528
    59  H    0.144952
    60  H    0.094133
    61  H    0.122936
    62  H    0.143821
    63  H    0.123915
    64  H    0.282976
    65  H    0.270462
    66  H    0.246029
    67  H    0.163049
    68  H    0.140337
    69  H    0.145722
    70  H    0.148769
    71  H    0.284926
    72  H    0.263779
    73  H    0.279807
    74  H    0.142446
    75  H    0.124096
    76  H    0.127803
    77  H    0.123467
    78  H    0.150710
    79  H    0.155141
    80  H    0.141597
    81  H    0.112426
    82  H    0.122951
    83  H    0.127241
    84  H    0.152438
    85  H    0.144872
    86  H    0.142352
    87  H    0.114525
    88  H    0.124505
    89  H    0.126950
    90  H    0.141672
    91  H    0.154202
    92  H    0.150269
    93  H    0.143896
    94  H    0.124362
    95  H    0.121574
    96  H    0.110496
    97  H    0.271622
    98  H    0.382593
    99  H    0.387694
   100  H    0.117674
   101  H    0.128094
   102  H    0.121585
   103  H    0.123239
 Sum of Mulliken charges =  -0.00000

 Dipole moment (field-independent basis, Debye):
    X=              7.2789    Y=             -3.2813    Z=              8.0213  Tot=             11.3177
 Quadrupole moment (field-independent basis, Debye-Ang):
   XX=           -339.9043   YY=           -305.3338   ZZ=           -299.2370
   XY=             15.8325   XZ=             -3.7970   YZ=            -23.4235

 Normal termination of Gaussian 16 at Tue Sep 13 03:48:13 2022.
