 Gaussian 16, Revision A.03,
 Gaussian 16:  ES64L-G16RevA.03 25-Dec-2016

 ---------------------------------------------------------------------
 # polar def2tzvp empiricaldispersion=gd3bj int=grid=ultrafine pbe1pbe
 ---------------------------------------------------------------------

 ---------
 1cck_II_S
 ---------
 Symbolic Z-matrix:
 Charge =  0 Multiplicity = 1

                         Standard orientation:
 ---------------------------------------------------------------------
 Center     Atomic      Atomic             Coordinates (Angstroms)
 Number     Number       Type             X           Y           Z
 ---------------------------------------------------------------------
      1          6           0       -1.368806   -2.208983    4.940654
      2          6           0       -1.479203   -1.211500    3.781960
      3          7           0       -2.075098   -0.026779    3.757533
      4          6           0       -0.927204   -1.363969    2.536433
      5          6           0       -1.897537    0.526963    2.588139
      6          7           0       -1.195197   -0.293121    1.831894
      7          1           0       -2.719374    0.301471    4.407650
      8         26           0       -0.940744    0.109620   -0.143438
      9          6           0        2.380381    0.118184    0.088961
     10          6           0       -1.008055    3.489105   -0.163676
     11          6           0       -4.289239    0.101342   -0.725102
     12          6           0       -0.862758   -3.218087   -0.697857
     13          7           0        0.444264    1.573916    0.027429
     14          6           0        1.762538    1.374358    0.093648
     15          6           0        2.423966    2.583209    0.169359
     16          6           0        1.429592    3.569364    0.162103
     17          6           0        0.247385    2.895532   -0.008704
     18          6           0        1.593570    5.074121    0.352848
     19          6           0        3.936172    2.741186    0.300432
     20          6           0        4.689093    2.756661   -1.005189
     21          6           0        6.204857    2.885166   -0.837538
     22          8           0        6.695761    3.841906   -0.231702
     23          8           0        6.942937    2.027706   -1.328503
     24          7           0       -2.447189    1.556402   -0.174801
     25          6           0       -2.260885    2.870721   -0.217065
     26          6           0       -3.473618    3.561387   -0.266798
     27          6           0       -4.443870    2.558728   -0.386106
     28          6           0       -3.738046    1.355687   -0.441770
     29          6           0       -3.575034    5.087424   -0.105985
     30          6           0       -5.840408    2.620391   -0.367901
     31          6           0       -6.253880    3.929699   -0.648392
     32          7           0       -2.340887   -1.320041   -0.625772
     33          6           0       -3.663379   -1.150258   -0.829661
     34          6           0       -4.316749   -2.344584   -1.157791
     35          6           0       -3.274860   -3.278976   -1.227492
     36          6           0       -2.116573   -2.606978   -0.840503
     37          6           0       -5.813172   -2.519527   -1.491839
     38          6           0       -3.249795   -4.636576   -1.593382
     39          6           0       -4.345803   -5.527297   -1.807379
     40          7           0        0.530323   -1.345911   -0.275375
     41          6           0        0.348929   -2.656899   -0.388897
     42          6           0        1.509016   -3.353596   -0.119634
     43          6           0        2.465142   -2.370638    0.132407
     44          6           0        1.818935   -1.157387   -0.020547
     45          6           0        1.647940   -4.853090    0.019009
     46          6           0        3.907440   -2.594309    0.555166
     47          6           0        4.849139   -2.721200   -0.635239
     48          6           0        6.315647   -2.656009   -0.273219
     49          8           0        7.073200   -2.162660   -1.085880
     50          8           0        6.716690   -3.091898    0.804733
     51          8           0       -0.662430    0.698115   -2.271724
     52          1           0        7.471353    4.285507   -0.582807
     53          1           0        4.479424    1.848728   -1.531113
     54          1           0        4.339267    3.580593   -1.591411
     55          1           0        4.135385    3.658144    0.814634
     56          1           0        4.308742    1.932740    0.894155
     57          1           0        1.424046    5.572307   -0.578803
     58          1           0        0.886101    5.421070    1.076736
     59          1           0        2.585566    5.284342    0.694388
     60          1           0       -1.011017    4.555357   -0.253102
     61          1           0       -3.933272    5.519060   -1.017168
     62          1           0       -4.253341    5.318019    0.688764
     63          1           0       -2.609053    5.486983    0.122341
     64          1           0       -6.197540    2.332978    0.598924
     65          1           0       -6.557990    4.409652    0.258285
     66          1           0       -5.442874    4.473947   -1.085385
     67          1           0       -5.347013    0.095530   -0.886291
     68          1           0       -5.953727   -3.432580   -2.031726
     69          1           0       -6.379838   -2.550683   -0.584745
     70          1           0       -6.143517   -1.696616   -2.090663
     71          1           0       -0.897122    0.389467   -3.149935
     72          1           0       -1.372329    1.242562   -1.923556
     73          1           0       -4.996915   -5.502004   -0.958667
     74          1           0       -4.885786   -5.225119   -2.680309
     75          1           0       -2.656723   -5.110818   -0.839552
     76          1           0       -0.849985   -4.276739   -0.852753
     77          1           0        2.317510   -5.220073   -0.730591
     78          1           0        2.035122   -5.087277    0.988621
     79          1           0        0.689484   -5.312870   -0.102907
     80          1           0        3.446003    0.137299    0.183753
     81          1           0        3.962406   -3.490703    1.136851
     82          1           0        4.222757   -1.769406    1.159327
     83          1           0        4.660182   -3.656450   -1.119493
     84          1           0        4.634000   -1.931215   -1.324106
     85          1           0        7.204886   -3.917874    0.836796
     86          1           0       -2.262267    1.488441    2.292450
     87          1           0       -0.371839   -2.213461    2.197564
     88          1           0       -0.663531   -2.972859    4.687710
     89          1           0       -1.040319   -1.697718    5.821338
     90          1           0       -2.325508   -2.652647    5.121719
 ---------------------------------------------------------------------

 SCF Done:  E(RPBE1PBE) =  -3438.46325630     A.U. after   28 cycles

 The electronic state is 1-A.
 Alpha  occ. eigenvalues -- -256.31797 -30.08345 -25.91160 -25.90867 -25.90791
 Alpha  occ. eigenvalues --  -19.25491 -19.24758 -19.21407 -19.16643 -19.16376
 Alpha  occ. eigenvalues --  -14.45862 -14.39966 -14.37256 -14.37020 -14.35896
 Alpha  occ. eigenvalues --  -14.35603 -10.33978 -10.33541 -10.28198 -10.26716
 Alpha  occ. eigenvalues --  -10.24550 -10.24512 -10.24079 -10.24045 -10.23956
 Alpha  occ. eigenvalues --  -10.23780 -10.23589 -10.23577 -10.23573 -10.23488
 Alpha  occ. eigenvalues --  -10.23452 -10.23153 -10.23061 -10.22821 -10.22805
 Alpha  occ. eigenvalues --  -10.22625 -10.22409 -10.22391 -10.22350 -10.22332
 Alpha  occ. eigenvalues --  -10.22165 -10.22130 -10.22074 -10.21908 -10.21841
 Alpha  occ. eigenvalues --  -10.21839 -10.21767 -10.21696 -10.21640 -10.21584
 Alpha  occ. eigenvalues --  -10.21506 -10.21490 -10.21485 -10.20337  -3.43185
 Alpha  occ. eigenvalues --   -2.19217  -2.18503  -2.18386  -1.17266  -1.17165
 Alpha  occ. eigenvalues --   -1.09832  -1.05149  -1.02988  -1.01816  -1.00736
 Alpha  occ. eigenvalues --   -0.99860  -0.99337  -0.98703  -0.94023  -0.85417
 Alpha  occ. eigenvalues --   -0.84355  -0.83630  -0.83472  -0.83105  -0.81980
 Alpha  occ. eigenvalues --   -0.81956  -0.81495  -0.79600  -0.78707  -0.77845
 Alpha  occ. eigenvalues --   -0.76702  -0.75415  -0.74451  -0.73637  -0.72907
 Alpha  occ. eigenvalues --   -0.72832  -0.72138  -0.70500  -0.69665  -0.69284
 Alpha  occ. eigenvalues --   -0.67441  -0.66994  -0.66856  -0.65634  -0.65206
 Alpha  occ. eigenvalues --   -0.64049  -0.62562  -0.61677  -0.59280  -0.58625
 Alpha  occ. eigenvalues --   -0.57980  -0.57561  -0.56898  -0.55912  -0.55005
 Alpha  occ. eigenvalues --   -0.53727  -0.53276  -0.52708  -0.52482  -0.51815
 Alpha  occ. eigenvalues --   -0.51416  -0.50945  -0.50466  -0.50417  -0.49930
 Alpha  occ. eigenvalues --   -0.49388  -0.49031  -0.48615  -0.48560  -0.48160
 Alpha  occ. eigenvalues --   -0.46987  -0.46187  -0.45952  -0.45599  -0.45455
 Alpha  occ. eigenvalues --   -0.45193  -0.44956  -0.44522  -0.44461  -0.44364
 Alpha  occ. eigenvalues --   -0.44103  -0.43838  -0.43505  -0.43336  -0.43122
 Alpha  occ. eigenvalues --   -0.43019  -0.42807  -0.42688  -0.42418  -0.42333
 Alpha  occ. eigenvalues --   -0.41635  -0.41399  -0.41055  -0.40494  -0.40446
 Alpha  occ. eigenvalues --   -0.40332  -0.39943  -0.39522  -0.39121  -0.38957
 Alpha  occ. eigenvalues --   -0.38656  -0.38332  -0.37910  -0.37763  -0.37454
 Alpha  occ. eigenvalues --   -0.36985  -0.36712  -0.36380  -0.35788  -0.35667
 Alpha  occ. eigenvalues --   -0.35166  -0.34961  -0.34539  -0.34286  -0.34104
 Alpha  occ. eigenvalues --   -0.33845  -0.32946  -0.32724  -0.32211  -0.31931
 Alpha  occ. eigenvalues --   -0.30786  -0.30402  -0.29110  -0.28794  -0.27221
 Alpha  occ. eigenvalues --   -0.27147  -0.26794  -0.26574  -0.25291  -0.24606
 Alpha  occ. eigenvalues --   -0.23917  -0.23494  -0.21166  -0.21090  -0.19923
 Alpha  occ. eigenvalues --   -0.19582  -0.18990  -0.18189
 Alpha virt. eigenvalues --   -0.10026  -0.08438  -0.06531  -0.05478  -0.01295
 Alpha virt. eigenvalues --   -0.00334   0.00284   0.00580   0.01378   0.02195
 Alpha virt. eigenvalues --    0.03420   0.03630   0.03879   0.04348   0.04533

 Mulliken charges:
               1
     1  C   -0.373531
     2  C    0.149072
     3  N   -0.199686
     4  C   -0.191021
     5  C    0.019970
     6  N    0.021626
     7  H    0.225515
     8  Fe  -0.158277
     9  C   -0.487948
    10  C   -0.451413
    11  C   -0.472981
    12  C   -0.471817
    13  N   -0.008576
    14  C    0.298191
    15  C    0.062499
    16  C   -0.098926
    17  C    0.233947
    18  C   -0.403812
    19  C   -0.425480
    20  C   -0.111091
    21  C    0.224716
    22  O   -0.329172
    23  O   -0.342182
    24  N   -0.268085
    25  C    0.293439
    26  C   -0.113846
    27  C   -0.031205
    28  C    0.158366
    29  C   -0.370594
    30  C   -0.130838
    31  C   -0.231804
    32  N   -0.029610
    33  C    0.329096
    34  C   -0.128844
    35  C   -0.053702
    36  C    0.267695
    37  C   -0.387732
    38  C   -0.003116
    39  C   -0.411656
    40  N   -0.103777
    41  C    0.272503
    42  C   -0.106612
    43  C    0.022352
    44  C    0.272836
    45  C   -0.388329
    46  C   -0.327533
    47  C   -0.208521
    48  C    0.239832
    49  O   -0.298521
    50  O   -0.345075
    51  O   -0.516732
    52  H    0.351929
    53  H    0.140673
    54  H    0.111997
    55  H    0.122571
    56  H    0.131624
    57  H    0.139128
    58  H    0.136321
    59  H    0.128625
    60  H    0.115580
    61  H    0.155420
    62  H    0.142264
    63  H    0.120695
    64  H    0.111811
    65  H    0.113837
    66  H    0.098765
    67  H    0.138202
    68  H    0.135267
    69  H    0.140454
    70  H    0.140922
    71  H    0.327640
    72  H    0.323673
    73  H    0.152924
    74  H    0.107923
    75  H    0.096113
    76  H    0.099113
    77  H    0.137307
    78  H    0.131100
    79  H    0.124266
    80  H    0.129553
    81  H    0.099984
    82  H    0.132633
    83  H    0.116388
    84  H    0.146115
    85  H    0.353453
    86  H    0.168527
    87  H    0.144695
    88  H    0.147633
    89  H    0.135433
    90  H    0.139833
 Sum of Mulliken charges =  -0.00000

 Dipole moment (field-independent basis, Debye):
    X=             -2.5555    Y=              2.5582    Z=              8.0374  Tot=              8.8134
 Quadrupole moment (field-independent basis, Debye-Ang):
   XX=           -325.9756   YY=           -270.2707   ZZ=           -275.3636
   XY=             -7.8032   XZ=             -3.3770   YZ=            -14.0635

  Exact polarizability: 841.764  19.596 851.469  53.906  46.052 360.663
 Approx polarizability:1448.067  44.1201688.668 113.882 120.837 582.693

 Normal termination of Gaussian 16 at Sat Aug 27 05:54:37 2022.
