 Gaussian 16, Revision A.03,
 Gaussian 16:  ES64L-G16RevA.03 25-Dec-2016

 ----------------------------------------------------------------------
 # PBE1PBE/def2TZVP empiricaldispersion=GD3BJ geom=check guess=read scr
 f=(smd,solvent=Chloroform)
 ----------------------------------------------------------------------

 --------------
 1cck_II_Q_solv
 --------------
 Structure from the checkpoint file:  "1cck_II_Q.chk"
 Charge =  0 Multiplicity = 5

                         Standard orientation:
 ---------------------------------------------------------------------
 Center     Atomic      Atomic             Coordinates (Angstroms)
 Number     Number       Type             X           Y           Z
 ---------------------------------------------------------------------
      1          6           0       -1.368806   -2.208983    4.940654
      2          6           0       -1.479203   -1.211500    3.781960
      3          7           0       -2.075098   -0.026779    3.757533
      4          6           0       -0.927204   -1.363969    2.536433
      5          6           0       -1.897537    0.526963    2.588139
      6          7           0       -1.195197   -0.293121    1.831894
      7          1           0       -2.719374    0.301471    4.407650
      8         26           0       -0.940744    0.109620   -0.143438
      9          6           0        2.380381    0.118184    0.088961
     10          6           0       -1.008055    3.489105   -0.163676
     11          6           0       -4.289239    0.101342   -0.725102
     12          6           0       -0.862758   -3.218087   -0.697857
     13          7           0        0.444264    1.573916    0.027429
     14          6           0        1.762538    1.374358    0.093648
     15          6           0        2.423966    2.583209    0.169359
     16          6           0        1.429592    3.569364    0.162103
     17          6           0        0.247385    2.895532   -0.008704
     18          6           0        1.593570    5.074121    0.352848
     19          6           0        3.936172    2.741186    0.300432
     20          6           0        4.689093    2.756661   -1.005189
     21          6           0        6.204857    2.885166   -0.837538
     22          8           0        6.695761    3.841906   -0.231702
     23          8           0        6.942937    2.027706   -1.328503
     24          7           0       -2.447189    1.556402   -0.174801
     25          6           0       -2.260885    2.870721   -0.217065
     26          6           0       -3.473618    3.561387   -0.266798
     27          6           0       -4.443870    2.558728   -0.386106
     28          6           0       -3.738046    1.355687   -0.441770
     29          6           0       -3.575034    5.087424   -0.105985
     30          6           0       -5.840408    2.620391   -0.367901
     31          6           0       -6.253880    3.929699   -0.648392
     32          7           0       -2.340887   -1.320041   -0.625772
     33          6           0       -3.663379   -1.150258   -0.829661
     34          6           0       -4.316749   -2.344584   -1.157791
     35          6           0       -3.274860   -3.278976   -1.227492
     36          6           0       -2.116573   -2.606978   -0.840503
     37          6           0       -5.813172   -2.519527   -1.491839
     38          6           0       -3.249795   -4.636576   -1.593382
     39          6           0       -4.345803   -5.527297   -1.807379
     40          7           0        0.530323   -1.345911   -0.275375
     41          6           0        0.348929   -2.656899   -0.388897
     42          6           0        1.509016   -3.353596   -0.119634
     43          6           0        2.465142   -2.370638    0.132407
     44          6           0        1.818935   -1.157387   -0.020547
     45          6           0        1.647940   -4.853090    0.019009
     46          6           0        3.907440   -2.594309    0.555166
     47          6           0        4.849139   -2.721200   -0.635239
     48          6           0        6.315647   -2.656009   -0.273219
     49          8           0        7.073200   -2.162660   -1.085880
     50          8           0        6.716690   -3.091898    0.804733
     51          8           0       -0.662430    0.698115   -2.271724
     52          1           0        7.471353    4.285507   -0.582807
     53          1           0        4.479424    1.848728   -1.531113
     54          1           0        4.339267    3.580593   -1.591411
     55          1           0        4.135385    3.658144    0.814634
     56          1           0        4.308742    1.932740    0.894155
     57          1           0        1.424046    5.572307   -0.578803
     58          1           0        0.886101    5.421070    1.076736
     59          1           0        2.585566    5.284342    0.694388
     60          1           0       -1.011017    4.555357   -0.253102
     61          1           0       -3.933272    5.519060   -1.017168
     62          1           0       -4.253341    5.318019    0.688764
     63          1           0       -2.609053    5.486983    0.122341
     64          1           0       -6.197540    2.332978    0.598924
     65          1           0       -6.557990    4.409652    0.258285
     66          1           0       -5.442874    4.473947   -1.085385
     67          1           0       -5.347013    0.095530   -0.886291
     68          1           0       -5.953727   -3.432580   -2.031726
     69          1           0       -6.379838   -2.550683   -0.584745
     70          1           0       -6.143517   -1.696616   -2.090663
     71          1           0       -0.897122    0.389467   -3.149935
     72          1           0       -1.372329    1.242562   -1.923556
     73          1           0       -4.996915   -5.502004   -0.958667
     74          1           0       -4.885786   -5.225119   -2.680309
     75          1           0       -2.656723   -5.110818   -0.839552
     76          1           0       -0.849985   -4.276739   -0.852753
     77          1           0        2.317510   -5.220073   -0.730591
     78          1           0        2.035122   -5.087277    0.988621
     79          1           0        0.689484   -5.312870   -0.102907
     80          1           0        3.446003    0.137299    0.183753
     81          1           0        3.962406   -3.490703    1.136851
     82          1           0        4.222757   -1.769406    1.159327
     83          1           0        4.660182   -3.656450   -1.119493
     84          1           0        4.634000   -1.931215   -1.324106
     85          1           0        7.204886   -3.917874    0.836796
     86          1           0       -2.262267    1.488441    2.292450
     87          1           0       -0.371839   -2.213461    2.197564
     88          1           0       -0.663531   -2.972859    4.687710
     89          1           0       -1.040319   -1.697718    5.821338
     90          1           0       -2.325508   -2.652647    5.121719
 ---------------------------------------------------------------------

 SCF Done:  E(UPBE1PBE) =  -3438.53469962     A.U. after   43 cycles

 Alpha virt. eigenvalues --    0.72003   0.72259   0.72601   0.72858   0.73051
 Alpha virt. eigenvalues --    0.73485   0.73775   0.73842   0.74508   0.74933
 Alpha virt. eigenvalues --    0.75021   0.75295   0.75460   0.75992   0.76156

  Beta  occ. eigenvalues -- -256.32257 -30.06620 -25.90593 -25.89822 -25.88267
  Beta  occ. eigenvalues --  -19.25222 -19.24397 -19.20070 -19.17385 -19.17094
  Beta  occ. eigenvalues --  -14.43741 -14.37401 -14.37195 -14.36935 -14.36174
  Beta  occ. eigenvalues --  -14.35363 -10.34474 -10.34085 -10.26587 -10.25063
  Beta  occ. eigenvalues --  -10.24421 -10.24367 -10.24150 -10.23942 -10.23546
  Beta  occ. eigenvalues --  -10.23278 -10.23266 -10.23201 -10.23116 -10.22678
  Beta  occ. eigenvalues --  -10.22437 -10.22227 -10.22198 -10.22186 -10.22022
  Beta  occ. eigenvalues --  -10.21970 -10.21900 -10.21816 -10.21754 -10.21723
  Beta  occ. eigenvalues --  -10.21596 -10.21560 -10.21511 -10.21508 -10.21469
  Beta  occ. eigenvalues --  -10.21450 -10.21389 -10.21333 -10.21016 -10.20949
  Beta  occ. eigenvalues --  -10.20909 -10.20713 -10.20563 -10.20484  -3.39029
  Beta  occ. eigenvalues --   -2.16667  -2.14789  -2.10842  -1.17165  -1.17032
  Beta  occ. eigenvalues --   -1.07963  -1.04079  -1.03658  -1.02483  -1.00590
  Beta  occ. eigenvalues --   -0.99806  -0.99401  -0.98731  -0.92107  -0.85173
  Beta  occ. eigenvalues --   -0.84034  -0.83155  -0.83063  -0.82493  -0.81634
  Beta  occ. eigenvalues --   -0.81226  -0.80085  -0.79160  -0.78427  -0.77448
  Beta  occ. eigenvalues --   -0.75954  -0.75176  -0.74022  -0.72368  -0.72301
  Beta  occ. eigenvalues --   -0.71670  -0.71621  -0.70045  -0.69266  -0.68820
  Beta  occ. eigenvalues --   -0.66648  -0.66536  -0.65319  -0.65126  -0.64881
  Beta  occ. eigenvalues --   -0.62276  -0.62005  -0.60966  -0.59012  -0.58367
  Beta  occ. eigenvalues --   -0.56786  -0.56435  -0.56240  -0.55554  -0.54658
  Beta  occ. eigenvalues --   -0.53289  -0.52978  -0.52425  -0.52161  -0.51664
  Beta  occ. eigenvalues --   -0.51197  -0.50783  -0.50401  -0.49865  -0.49087
  Beta  occ. eigenvalues --   -0.48881  -0.48596  -0.48486  -0.48211  -0.47381
  Beta  occ. eigenvalues --   -0.46446  -0.45765  -0.45450  -0.45258  -0.44964
  Beta  occ. eigenvalues --   -0.44822  -0.44272  -0.43910  -0.43480  -0.43333
  Beta  occ. eigenvalues --   -0.43094  -0.42661  -0.42392  -0.42319  -0.42215
  Beta  occ. eigenvalues --   -0.42084  -0.41841  -0.41732  -0.41618  -0.41322
  Beta  occ. eigenvalues --   -0.41009  -0.40718  -0.40517  -0.39978  -0.39906
  Beta  occ. eigenvalues --   -0.39828  -0.39488  -0.39142  -0.38782  -0.38609
  Beta  occ. eigenvalues --   -0.38268  -0.37912  -0.37580  -0.37401  -0.37077
  Beta  occ. eigenvalues --   -0.36648  -0.36321  -0.35933  -0.35467  -0.35331
  Beta  occ. eigenvalues --   -0.34864  -0.34739  -0.34360  -0.33685  -0.33162
  Beta  occ. eigenvalues --   -0.32926  -0.32574  -0.32517  -0.32373  -0.32071
  Beta  occ. eigenvalues --   -0.30816  -0.30307  -0.28715  -0.28648  -0.27611
  Beta  occ. eigenvalues --   -0.27372  -0.26894  -0.25853  -0.23999  -0.23890
  Beta  occ. eigenvalues --   -0.23246  -0.23010  -0.20518  -0.20355  -0.18917
  Beta  occ. eigenvalues --   -0.16003
  Beta virt. eigenvalues --   -0.09581  -0.08237  -0.07192  -0.05380  -0.03886
  Beta virt. eigenvalues --   -0.00736   0.00152   0.00562   0.00758   0.02637
  Beta virt. eigenvalues --    0.03148   0.04390   0.04871   0.05034   0.05303

 Mulliken charges and spin densities:
               1          2
     1  C   -0.398545   0.000977
     2  C    0.132771   0.004809
     3  N   -0.188395   0.001035
     4  C   -0.228267  -0.000012
     5  C    0.001833   0.004097
     6  N   -0.041880   0.032146
     7  H    0.263906   0.001191
     8  Fe  -0.062635   2.176097
     9  C   -0.479702  -0.028079
    10  C   -0.485850  -0.063203
    11  C   -0.489080   0.108553
    12  C   -0.500327  -0.006601
    13  N   -0.017301  -0.055717
    14  C    0.271589  -0.010620
    15  C    0.031890   0.041998
    16  C   -0.104159  -0.035503
    17  C    0.212756   0.039587
    18  C   -0.427588   0.001879
    19  C   -0.402109  -0.003895
    20  C   -0.144984   0.001588
    21  C    0.254089   0.000271
    22  O   -0.339171  -0.000009
    23  O   -0.403717   0.000137
    24  N   -0.284026  -0.008023
    25  C    0.309908   0.038522
    26  C   -0.126508  -0.050234
    27  C   -0.023898   0.051745
    28  C    0.171754  -0.052530
    29  C   -0.398617   0.002653
    30  C   -0.157666  -0.085882
    31  C   -0.291849   0.104396
    32  N   -0.040685   0.025743
    33  C    0.292260  -0.094000
    34  C   -0.143650   0.321733
    35  C   -0.064486  -0.165872
    36  C    0.254849   0.023712
    37  C   -0.400743  -0.017224
    38  C   -0.072757   0.656461
    39  C   -0.369948   0.978714
    40  N   -0.135196  -0.017368
    41  C    0.281866   0.004531
    42  C   -0.113211  -0.017398
    43  C   -0.007784   0.019903
    44  C    0.247067  -0.003180
    45  C   -0.420325   0.000903
    46  C   -0.316386  -0.001716
    47  C   -0.227942   0.000747
    48  C    0.265653   0.000193
    49  O   -0.360843   0.000084
    50  O   -0.360218  -0.000003
    51  O   -0.548010   0.014331
    52  H    0.385840   0.000007
    53  H    0.142656  -0.000062
    54  H    0.135908  -0.000026
    55  H    0.135680   0.000427
    56  H    0.143115   0.000659
    57  H    0.150616  -0.001409
    58  H    0.150351  -0.001132
    59  H    0.145880  -0.000234
    60  H    0.151017   0.002744
    61  H    0.168195  -0.001165
    62  H    0.161162  -0.001313
    63  H    0.139317   0.000018
    64  H    0.138579   0.002627
    65  H    0.142377  -0.004427
    66  H    0.120065  -0.002613
    67  H    0.162551  -0.005045
    68  H    0.144431   0.001216
    69  H    0.157893   0.012593
    70  H    0.151231   0.009728
    71  H    0.344509   0.007971
    72  H    0.324234   0.000731
    73  H    0.152960   0.028166
    74  H    0.144636  -0.006036
    75  H    0.119848   0.010323
    76  H    0.133361   0.000400
    77  H    0.150022  -0.000647
    78  H    0.147771  -0.000490
    79  H    0.138197  -0.000109
    80  H    0.155149   0.001025
    81  H    0.119846   0.000283
    82  H    0.141554   0.000183
    83  H    0.141743   0.000028
    84  H    0.146599   0.000045
    85  H    0.391585  -0.000000
    86  H    0.186435   0.001759
    87  H    0.162808   0.001773
    88  H    0.159940   0.000035
    89  H    0.148311   0.000097
    90  H    0.149898   0.000206
 Sum of Mulliken charges =  -0.00000   4.00000

 Dipole moment (field-independent basis, Debye):
    X=             -4.3104    Y=              2.0880    Z=              9.6019  Tot=             10.7301
 Quadrupole moment (field-independent basis, Debye-Ang):
   XX=           -323.1748   YY=           -248.6518   ZZ=           -273.1692
   XY=             -2.1106   XZ=             -0.9190   YZ=            -12.2873

 Normal termination of Gaussian 16 at Tue Nov  8 15:23:16 2022.
