 Gaussian 16, Revision A.03,
 Gaussian 16:  ES64L-G16RevA.03 25-Dec-2016

 ---------------------------------------------------------------------
 # polar def2tzvp empiricaldispersion=gd3bj int=grid=ultrafine pbe1pbe
 ---------------------------------------------------------------------

 ---------
 1a6g_II_S
 ---------
 Symbolic Z-matrix:
 Charge =  0 Multiplicity = 1

                         Standard orientation:
 ---------------------------------------------------------------------
 Center     Atomic      Atomic             Coordinates (Angstroms)
 Number     Number       Type             X           Y           Z
 ---------------------------------------------------------------------
      1          6           0       -1.668641   -0.145279    5.292812
      2          6           0       -1.254598   -0.464156    3.872057
      3          7           0       -0.483759   -1.549544    3.561379
      4          6           0       -1.440696    0.196128    2.683998
      5          6           0       -0.249098   -1.484741    2.210824
      6          7           0       -0.821448   -0.449671    1.667667
      7         26           0       -0.723984    0.098720   -0.317666
      8          6           0        2.602199   -0.452503   -0.308600
      9          6           0       -1.288254   -3.183982   -1.130162
     10          6           0       -4.050075    0.662815   -0.381545
     11          6           0       -0.167747    3.346614    0.413137
     12          7           0        0.427754   -1.492778   -0.681890
     13          6           0        1.785478   -1.552720   -0.571465
     14          6           0        2.242471   -2.903006   -0.832461
     15          6           0        1.127798   -3.637650   -1.110093
     16          6           0        0.058414   -2.804100   -0.985911
     17          6           0        1.080326   -5.157057   -1.413901
     18          6           0        3.674702   -3.431078   -0.700846
     19          6           0        3.855934   -4.280191    0.587903
     20          6           0        3.536533   -3.512247    1.829572
     21          8           0        2.595994   -3.898986    2.569866
     22          8           0        4.222159   -2.484528    2.078858
     23          7           0       -2.378579   -0.999116   -0.668528
     24          6           0       -2.422961   -2.382987   -1.014722
     25          6           0       -3.770152   -2.797530   -1.176984
     26          6           0       -4.526313   -1.733658   -0.967353
     27          6           0       -3.654506   -0.603317   -0.652072
     28          6           0       -4.190256   -4.236376   -1.483579
     29          6           0       -6.026696   -1.610473   -1.111223
     30          6           0       -6.680165   -2.342620   -2.045838
     31          7           0       -1.853023    1.642466    0.001596
     32          6           0       -3.276022    1.798386   -0.142558
     33          6           0       -3.726764    3.140054   -0.038615
     34          6           0       -2.619367    3.899004    0.177573
     35          6           0       -1.459521    3.003438    0.203034
     36          6           0       -5.187114    3.592041   -0.158132
     37          6           0       -2.475848    5.397954    0.243669
     38          6           0       -3.575721    6.187318    0.182421
     39          7           0        0.872470    1.209764    0.064770
     40          6           0        0.940568    2.555549    0.357252
     41          6           0        2.315034    3.001552    0.463842
     42          6           0        3.072133    1.942310    0.204909
     43          6           0        2.195439    0.846664   -0.012707
     44          6           0        2.718319    4.445503    0.748162
     45          6           0        4.595561    1.896357    0.035348
     46          6           0        5.017935    2.207241   -1.431061
     47          6           0        6.472441    2.383974   -1.657329
     48          8           0        6.986048    3.473400   -1.294814
     49          8           0        7.048103    1.379372   -2.235236
     50          6           0       -0.707283    0.741667   -2.022664
     51          8           0       -0.696536    1.279695   -2.973117
     52          1           0       -1.836314    0.907229    5.387752
     53          1           0       -2.569273   -0.672632    5.528737
     54          1           0       -0.892990   -0.445045    5.966167
     55          1           0       -0.155767   -2.251803    4.193244
     56          1           0        0.334506   -2.199547    1.669198
     57          1           0       -2.000820    1.101266    2.574979
     58          1           0        5.041394    2.617982    0.687567
     59          1           0        4.947155    0.921234    0.300706
     60          1           0        4.678611    1.405425   -2.053034
     61          1           0        4.521209    3.103767   -1.738317
     62          1           0        7.554201    1.513922   -3.039823
     63          1           0        2.724768    5.000719   -0.166493
     64          1           0        2.017339    4.884539    1.426967
     65          1           0        3.695637    4.463766    1.183381
     66          1           0        0.006582    4.374245    0.654974
     67          1           0       -1.505558    5.838816    0.338950
     68          1           0       -3.864893    6.630747   -0.747445
     69          1           0       -4.154954    6.367134    1.063928
     70          1           0       -5.452571    3.671056   -1.191665
     71          1           0       -5.822415    2.875707    0.319527
     72          1           0       -5.305408    4.544762    0.314339
     73          1           0       -5.108706    0.814244   -0.345925
     74          1           0       -6.572323   -0.945247   -0.475090
     75          1           0       -7.646290   -2.747955   -1.828566
     76          1           0       -6.229988   -2.515355   -3.001036
     77          1           0       -3.495847   -4.671813   -2.171395
     78          1           0       -4.199738   -4.805871   -0.577772
     79          1           0       -5.168989   -4.237723   -1.915991
     80          1           0       -1.463053   -4.215074   -1.356426
     81          1           0        3.657692   -0.625715   -0.337457
     82          1           0        1.925238   -5.427758   -2.012018
     83          1           0        1.103234   -5.705339   -0.495335
     84          1           0        0.179738   -5.386813   -1.944046
     85          1           0        4.350770   -2.602274   -0.670571
     86          1           0        3.902894   -4.036883   -1.552802
     87          1           0        4.870503   -4.616001    0.640649
     88          1           0        3.211609   -5.132707    0.533493
     89          1           0        4.715457   -2.054597    1.376422
 ---------------------------------------------------------------------

 SCF Done:  E(RPBE1PBE) =  -3475.47172590     A.U. after   20 cycles

 The electronic state is 1-A.
 Alpha  occ. eigenvalues -- -256.33967 -30.11308 -25.94193 -25.93667 -25.93636
 Alpha  occ. eigenvalues --  -19.27518 -19.27208 -19.26748 -19.19302 -19.18254
 Alpha  occ. eigenvalues --  -14.44123 -14.39021 -14.38691 -14.37814 -14.37606
 Alpha  occ. eigenvalues --  -14.37467 -10.36249 -10.35832 -10.30726 -10.27373
 Alpha  occ. eigenvalues --  -10.25951 -10.25340 -10.25155 -10.24921 -10.24874
 Alpha  occ. eigenvalues --  -10.24817 -10.24691 -10.24495 -10.24196 -10.24066
 Alpha  occ. eigenvalues --  -10.24008 -10.23951 -10.23903 -10.23650 -10.23178
 Alpha  occ. eigenvalues --  -10.23142 -10.23034 -10.22915 -10.22876 -10.22637
 Alpha  occ. eigenvalues --  -10.22567 -10.22412 -10.22361 -10.22296 -10.22107
 Alpha  occ. eigenvalues --  -10.22067 -10.22049 -10.22046 -10.21465 -10.21300
 Alpha  occ. eigenvalues --  -10.21227 -10.21098 -10.21092 -10.20897 -10.20779
 Alpha  occ. eigenvalues --   -3.45315  -2.21547  -2.20435  -2.20420  -1.18490
 Alpha  occ. eigenvalues --   -1.17315  -1.15622  -1.05532  -1.03500  -1.02886
 Alpha  occ. eigenvalues --   -0.98373  -0.97522  -0.97138  -0.95285  -0.91642
 Alpha  occ. eigenvalues --   -0.84567  -0.84310  -0.83724  -0.83018  -0.82569
 Alpha  occ. eigenvalues --   -0.81452  -0.81129  -0.80089  -0.79882  -0.79052
 Alpha  occ. eigenvalues --   -0.77583  -0.76710  -0.75572  -0.74421  -0.73274
 Alpha  occ. eigenvalues --   -0.72359  -0.72284  -0.71711  -0.70460  -0.70322
 Alpha  occ. eigenvalues --   -0.69883  -0.67933  -0.66244  -0.65916  -0.65323
 Alpha  occ. eigenvalues --   -0.64589  -0.61421  -0.61034  -0.60557  -0.59901
 Alpha  occ. eigenvalues --   -0.57538  -0.57357  -0.56974  -0.56096  -0.55526
 Alpha  occ. eigenvalues --   -0.55049  -0.54524  -0.54192  -0.52722  -0.52384
 Alpha  occ. eigenvalues --   -0.52133  -0.51531  -0.50955  -0.50581  -0.49876
 Alpha  occ. eigenvalues --   -0.49185  -0.49056  -0.48838  -0.48455  -0.48261
 Alpha  occ. eigenvalues --   -0.48111  -0.47762  -0.47417  -0.47017  -0.46154
 Alpha  occ. eigenvalues --   -0.45911  -0.45700  -0.45598  -0.45017  -0.44694
 Alpha  occ. eigenvalues --   -0.44443  -0.44169  -0.43910  -0.43781  -0.43580
 Alpha  occ. eigenvalues --   -0.43439  -0.43271  -0.43152  -0.42816  -0.42703
 Alpha  occ. eigenvalues --   -0.42570  -0.42289  -0.42233  -0.41921  -0.41449
 Alpha  occ. eigenvalues --   -0.41279  -0.41199  -0.40568  -0.40543  -0.40177
 Alpha  occ. eigenvalues --   -0.39644  -0.39565  -0.39178  -0.38913  -0.38764
 Alpha  occ. eigenvalues --   -0.38437  -0.38251  -0.38106  -0.37805  -0.37637
 Alpha  occ. eigenvalues --   -0.37044  -0.36746  -0.36396  -0.36354  -0.35694
 Alpha  occ. eigenvalues --   -0.35343  -0.34468  -0.33735  -0.33381  -0.33121
 Alpha  occ. eigenvalues --   -0.32995  -0.32618  -0.32047  -0.30770  -0.29138
 Alpha  occ. eigenvalues --   -0.28999  -0.28625  -0.28145  -0.27915  -0.27666
 Alpha  occ. eigenvalues --   -0.25974  -0.25269  -0.23676  -0.22979  -0.22437
 Alpha  occ. eigenvalues --   -0.21217  -0.20559  -0.19656  -0.19090  -0.16762
 Alpha virt. eigenvalues --   -0.09782  -0.07430  -0.06137  -0.02795  -0.02272
 Alpha virt. eigenvalues --   -0.00452   0.00189   0.00541   0.01516   0.02326
 Alpha virt. eigenvalues --    0.02836   0.03121   0.03530   0.03641   0.04063

 Mulliken charges:
               1
     1  C   -0.385856
     2  C    0.152162
     3  N   -0.223431
     4  C   -0.198987
     5  C   -0.001754
     6  N    0.065678
     7  Fe  -0.354947
     8  C   -0.477213
     9  C   -0.459701
    10  C   -0.435131
    11  C   -0.404711
    12  N   -0.019415
    13  C    0.260201
    14  C    0.009483
    15  C   -0.074405
    16  C    0.264203
    17  C   -0.412756
    18  C   -0.422660
    19  C   -0.175483
    20  C    0.298919
    21  O   -0.396957
    22  O   -0.275168
    23  N    0.033236
    24  C    0.250696
    25  C   -0.170906
    26  C    0.083981
    27  C    0.190300
    28  C   -0.366944
    29  C   -0.221949
    30  C   -0.319986
    31  N   -0.053959
    32  C    0.271621
    33  C   -0.095419
    34  C   -0.037359
    35  C    0.238771
    36  C   -0.362957
    37  C   -0.119163
    38  C   -0.408811
    39  N    0.006432
    40  C    0.248443
    41  C   -0.081421
    42  C   -0.040006
    43  C    0.281826
    44  C   -0.396815
    45  C   -0.335584
    46  C   -0.152383
    47  C    0.302395
    48  O   -0.353793
    49  O   -0.373901
    50  C    0.113386
    51  O   -0.009377
    52  H    0.146519
    53  H    0.145150
    54  H    0.130825
    55  H    0.244814
    56  H    0.200814
    57  H    0.142653
    58  H    0.136077
    59  H    0.101174
    60  H    0.113826
    61  H    0.137957
    62  H    0.350099
    63  H    0.146194
    64  H    0.136087
    65  H    0.138446
    66  H    0.084601
    67  H    0.131147
    68  H    0.143392
    69  H    0.152483
    70  H    0.139263
    71  H    0.134480
    72  H    0.141483
    73  H    0.089289
    74  H    0.121455
    75  H    0.132621
    76  H    0.149141
    77  H    0.126711
    78  H    0.137788
    79  H    0.144197
    80  H    0.105989
    81  H    0.058468
    82  H    0.132731
    83  H    0.152533
    84  H    0.133768
    85  H    0.143416
    86  H    0.136223
    87  H    0.131995
    88  H    0.120233
    89  H    0.333529
 Sum of Mulliken charges =  -0.00000

 Dipole moment (field-independent basis, Debye):
    X=              1.5643    Y=             -3.4844    Z=              0.2948  Tot=              3.8308
 Quadrupole moment (field-independent basis, Debye-Ang):
   XX=           -283.3004   YY=           -300.7685   ZZ=           -285.4467
   XY=            -19.4050   XZ=            -23.6996   YZ=              9.6915

  Exact polarizability: 812.291 -65.365 858.615  21.920  71.499 389.523
 Approx polarizability:1425.137-165.1721704.180  32.705 187.219 637.248

 Normal termination of Gaussian 16 at Fri Sep  2 17:24:51 2022.
