 Gaussian 16, Revision A.03,
 Gaussian 16:  ES64L-G16RevA.03 25-Dec-2016

 ----------------------------------------------------------------------
 # PBE1PBE/def2TZVP empiricaldispersion=GD3BJ scf=maxcycle=999 geom=che
 ck pop=nbo
 ----------------------------------------------------------------------

 ----------
 1a6k_III_D
 ----------
 Structure from the checkpoint file:  "1a6k_III_D.chk"
 Charge =  1 Multiplicity = 2

                         Standard orientation:
 ---------------------------------------------------------------------
 Center     Atomic      Atomic             Coordinates (Angstroms)
 Number     Number       Type             X           Y           Z
 ---------------------------------------------------------------------
      1          6           0       -1.628464   -0.035347    5.376603
      2          6           0       -1.246317   -0.363958    3.971197
      3          7           0       -0.384630   -1.372420    3.687947
      4          6           0       -1.530114    0.272890    2.789900
      5          6           0       -0.188023   -1.369426    2.368862
      6          7           0       -0.866560   -0.399928    1.778997
      7         26           0       -0.752908    0.099032   -0.294427
      8          6           0        2.609922   -0.530376   -0.320170
      9          6           0       -1.399339   -3.153495   -1.159378
     10          6           0       -4.109755    0.760360   -0.488845
     11          6           0       -0.131812    3.366302    0.296355
     12          7           0        0.357060   -1.523923   -0.757296
     13          6           0        1.763245   -1.623084   -0.614916
     14          6           0        2.167268   -2.970271   -0.830887
     15          6           0        1.040221   -3.721774   -1.113479
     16          6           0       -0.041543   -2.810355   -1.005407
     17          6           0        0.908708   -5.186288   -1.462268
     18          6           0        3.600327   -3.496641   -0.723195
     19          6           0        3.766799   -4.342399    0.558866
     20          6           0        3.498716   -3.508402    1.828964
     21          8           0        2.561911   -3.891291    2.549556
     22          8           0        4.223241   -2.493865    2.025092
     23          7           0       -2.424873   -0.976527   -0.779977
     24          6           0       -2.507206   -2.337492   -1.045260
     25          6           0       -3.864746   -2.736750   -1.200029
     26          6           0       -4.656428   -1.656828   -1.028466
     27          6           0       -3.750216   -0.531330   -0.712240
     28          6           0       -4.296299   -4.172073   -1.499493
     29          6           0       -6.142090   -1.512924   -1.147596
     30          6           0       -6.850195   -2.199454   -2.017639
     31          7           0       -1.916101    1.743657   -0.045526
     32          6           0       -3.292748    1.867833   -0.219508
     33          6           0       -3.702619    3.214792   -0.147178
     34          6           0       -2.574123    3.953948    0.056811
     35          6           0       -1.459253    3.052842    0.083881
     36          6           0       -5.124967    3.717419   -0.310928
     37          6           0       -2.374798    5.437669    0.046976
     38          6           0       -3.291499    6.356809    0.105326
     39          7           0        0.922273    1.213805   -0.020313
     40          6           0        0.940878    2.547587    0.259988
     41          6           0        2.365053    2.946215    0.330286
     42          6           0        3.107949    1.901220    0.141689
     43          6           0        2.254263    0.761191   -0.056825
     44          6           0        2.810032    4.410884    0.604205
     45          6           0        4.636883    1.849962   -0.014667
     46          6           0        5.048924    2.203065   -1.464035
     47          6           0        6.518479    2.258581   -1.689718
     48          8           0        7.129012    3.301571   -1.411168
     49          8           0        7.084536    1.339938   -2.272002
     50          8           0       -0.637587    0.758156   -2.314977
     51          1           0       -1.766485    1.021518    5.470866
     52          1           0       -2.539967   -0.537648    5.625110
     53          1           0       -0.852808   -0.354411    6.041025
     54          1           0       -2.152704    1.135001    2.671386
     55          1           0        0.027266   -2.002032    4.346681
     56          1           0        0.440301   -2.064701    1.852432
     57          1           0        0.148602    0.923725   -2.840423
     58          1           0       -0.386698    0.347295   -1.484406
     59          1           0       -6.450282   -2.406860   -2.988182
     60          1           0       -7.826204   -2.550589   -1.754942
     61          1           0       -6.646479   -0.825879   -0.500711
     62          1           0       -3.607393   -4.615395   -2.187805
     63          1           0       -4.307246   -4.738027   -0.591486
     64          1           0       -5.276374   -4.167621   -1.928833
     65          1           0       -1.597399   -4.178253   -1.395055
     66          1           0        1.722895   -5.477324   -2.092583
     67          1           0        0.925886   -5.769483   -0.565335
     68          1           0       -0.015774   -5.348995   -1.975843
     69          1           0       -5.160500    0.959493   -0.523221
     70          1           0       -5.362917    3.781600   -1.352159
     71          1           0       -5.800169    3.039537    0.168111
     72          1           0       -5.214785    4.685546    0.135795
     73          1           0       -3.561369    6.899979   -0.776170
     74          1           0       -3.776465    6.570483    1.034870
     75          1           0       -1.362953    5.780033   -0.015130
     76          1           0        0.073780    4.392487    0.519009
     77          1           0        2.818135    4.958964   -0.314731
     78          1           0        2.125910    4.869694    1.287119
     79          1           0        3.792224    4.411782    1.028700
     80          1           0        5.083889    2.550382    0.659497
     81          1           0        4.982438    0.864866    0.220020
     82          1           0        4.632863    1.469395   -2.122458
     83          1           0        4.632222    3.157017   -1.711492
     84          1           0        7.573877    1.512728   -3.079645
     85          1           0        3.658740   -0.741367   -0.301077
     86          1           0        3.819598   -4.102524   -1.577435
     87          1           0        4.279191   -2.670153   -0.692197
     88          1           0        4.765215   -4.725285    0.597124
     89          1           0        3.079487   -5.161879    0.527997
     90          1           0        4.708308   -2.102074    1.295154
 ---------------------------------------------------------------------

 SCF Done:  E(UPBE1PBE) =  -3438.27717776     A.U. after  264 cycles

 Alpha virt. eigenvalues --    0.62303   0.62725   0.62936   0.63128   0.63327
 Alpha virt. eigenvalues --    0.63662   0.64183   0.64530   0.64776   0.64902
 Alpha virt. eigenvalues --    0.65640   0.65689   0.66112   0.66444   0.66625

  Beta  occ. eigenvalues -- -256.54150 -30.30368 -26.13588 -26.12906 -26.12676
  Beta  occ. eigenvalues --  -19.36234 -19.33311 -19.33092 -19.27049 -19.24580
  Beta  occ. eigenvalues --  -14.55227 -14.52490 -14.50563 -14.50400 -14.50120
  Beta  occ. eigenvalues --  -14.49872 -10.44537 -10.42051 -10.39048 -10.37104
  Beta  occ. eigenvalues --  -10.36616 -10.36567 -10.36397 -10.36251 -10.36249
  Beta  occ. eigenvalues --  -10.36243 -10.36126 -10.35888 -10.34586 -10.33946
  Beta  occ. eigenvalues --  -10.33751 -10.33659 -10.33641 -10.33499 -10.33086
  Beta  occ. eigenvalues --  -10.33009 -10.32990 -10.32843 -10.32810 -10.32683
  Beta  occ. eigenvalues --  -10.32646 -10.32567 -10.32396 -10.32332 -10.32252
  Beta  occ. eigenvalues --  -10.31601 -10.31523 -10.31388 -10.31001 -10.30624
  Beta  occ. eigenvalues --  -10.30508 -10.30093 -10.29691 -10.29687  -3.63496
  Beta  occ. eigenvalues --   -2.40016  -2.38812  -2.37286  -1.25803  -1.25425
  Beta  occ. eigenvalues --   -1.17807  -1.17377  -1.12452  -1.09815  -1.09515
  Beta  occ. eigenvalues --   -1.08624  -1.08352  -1.07219  -1.02726  -0.95086
  Beta  occ. eigenvalues --   -0.94131  -0.93849  -0.93414  -0.92595  -0.92197
  Beta  occ. eigenvalues --   -0.91800  -0.91066  -0.89327  -0.88779  -0.88267
  Beta  occ. eigenvalues --   -0.87095  -0.86686  -0.84693  -0.82702  -0.82394
  Beta  occ. eigenvalues --   -0.82087  -0.81199  -0.79746  -0.79194  -0.79041
  Beta  occ. eigenvalues --   -0.77612  -0.76471  -0.76085  -0.75757  -0.74564
  Beta  occ. eigenvalues --   -0.72883  -0.72126  -0.71515  -0.70720  -0.70427
  Beta  occ. eigenvalues --   -0.69073  -0.66998  -0.66857  -0.65599  -0.64903
  Beta  occ. eigenvalues --   -0.64433  -0.63730  -0.63426  -0.62749  -0.62112
  Beta  occ. eigenvalues --   -0.60822  -0.60760  -0.59872  -0.59532  -0.58831
  Beta  occ. eigenvalues --   -0.58515  -0.58435  -0.58390  -0.57558  -0.56893
  Beta  occ. eigenvalues --   -0.56533  -0.55958  -0.55902  -0.55737  -0.55336
  Beta  occ. eigenvalues --   -0.54926  -0.54690  -0.54478  -0.54344  -0.54278
  Beta  occ. eigenvalues --   -0.54127  -0.53827  -0.53325  -0.53199  -0.52905
  Beta  occ. eigenvalues --   -0.52779  -0.52578  -0.52388  -0.52043  -0.51814
  Beta  occ. eigenvalues --   -0.51802  -0.51305  -0.51173  -0.51032  -0.50620
  Beta  occ. eigenvalues --   -0.50307  -0.50088  -0.49821  -0.49616  -0.49556
  Beta  occ. eigenvalues --   -0.49352  -0.48996  -0.48630  -0.48246  -0.48095
  Beta  occ. eigenvalues --   -0.47626  -0.47217  -0.47130  -0.46993  -0.46737
  Beta  occ. eigenvalues --   -0.46374  -0.46073  -0.45778  -0.45745  -0.45012
  Beta  occ. eigenvalues --   -0.44110  -0.43820  -0.43442  -0.43083  -0.42627
  Beta  occ. eigenvalues --   -0.42037  -0.41470  -0.40395  -0.40042  -0.39715
  Beta  occ. eigenvalues --   -0.39474  -0.37337  -0.36859  -0.36584  -0.35442
  Beta  occ. eigenvalues --   -0.35001  -0.34614  -0.34592  -0.32277  -0.30914
  Beta  occ. eigenvalues --   -0.30504  -0.27627
  Beta virt. eigenvalues --   -0.21703  -0.19876  -0.19818  -0.17736  -0.16063
  Beta virt. eigenvalues --   -0.15732  -0.12091  -0.09468  -0.09199  -0.08508
  Beta virt. eigenvalues --   -0.08440  -0.07699  -0.06525  -0.06140  -0.05697

 Mulliken charges and spin densities:
               1          2
     1  C   -0.369435  -0.000642
     2  C    0.161130  -0.001427
     3  N   -0.202630  -0.000224
     4  C   -0.204864  -0.000727
     5  C    0.004407   0.003229
     6  N   -0.017668  -0.033638
     7  Fe  -0.193204   1.100716
     8  C   -0.453564  -0.011073
     9  C   -0.484720  -0.015378
    10  C   -0.456471  -0.007502
    11  C   -0.440871  -0.002545
    12  N   -0.010147  -0.035205
    13  C    0.282496   0.004859
    14  C    0.002818   0.012494
    15  C   -0.055331   0.000139
    16  C    0.321852   0.009947
    17  C   -0.400736  -0.000714
    18  C   -0.413832  -0.000731
    19  C   -0.198006   0.000320
    20  C    0.293254   0.000232
    21  O   -0.374371   0.000009
    22  O   -0.270352  -0.000026
    23  N    0.024811  -0.050918
    24  C    0.259133   0.012867
    25  C   -0.114998  -0.001667
    26  C    0.043193   0.002581
    27  C    0.240473   0.008899
    28  C   -0.364762  -0.000169
    29  C   -0.210228  -0.002221
    30  C   -0.299545   0.002655
    31  N   -0.053661  -0.031583
    32  C    0.288741   0.009433
    33  C   -0.077150   0.021149
    34  C    0.003254  -0.001811
    35  C    0.271136  -0.001586
    36  C   -0.368404  -0.000899
    37  C   -0.118374   0.034473
    38  C   -0.361811  -0.018796
    39  N    0.039297  -0.036371
    40  C    0.220437   0.002170
    41  C   -0.075731  -0.001604
    42  C   -0.006723   0.000126
    43  C    0.241753   0.008120
    44  C   -0.384818  -0.000159
    45  C   -0.333473   0.000184
    46  C   -0.151120   0.000008
    47  C    0.262204   0.000010
    48  O   -0.348822   0.000012
    49  O   -0.333842   0.000005
    50  O   -0.379520   0.023210
    51  H    0.153990  -0.000023
    52  H    0.160521  -0.000014
    53  H    0.139075  -0.000097
    54  H    0.161136   0.000008
    55  H    0.264373   0.000065
    56  H    0.220210  -0.000288
    57  H    0.350153  -0.000091
    58  H    0.169446  -0.006933
    59  H    0.159082  -0.000147
    60  H    0.153511  -0.000195
    61  H    0.132102   0.000283
    62  H    0.133826  -0.000012
    63  H    0.153790   0.000051
    64  H    0.155362  -0.000142
    65  H    0.122373   0.000845
    66  H    0.148546  -0.000145
    67  H    0.166937   0.000323
    68  H    0.141773   0.000010
    69  H    0.122390   0.000709
    70  H    0.158985   0.001252
    71  H    0.139688   0.000061
    72  H    0.155460   0.000100
    73  H    0.170319   0.002865
    74  H    0.168809   0.002820
    75  H    0.139830  -0.002619
    76  H    0.115133   0.000189
    77  H    0.158549  -0.000008
    78  H    0.142397   0.000015
    79  H    0.153639  -0.000198
    80  H    0.151732  -0.000123
    81  H    0.105032  -0.000000
    82  H    0.109951  -0.000001
    83  H    0.143112   0.000004
    84  H    0.368511   0.000000
    85  H    0.058221   0.000730
    86  H    0.149316   0.000414
    87  H    0.151032   0.000012
    88  H    0.152533   0.000079
    89  H    0.130226  -0.000026
    90  H    0.337719  -0.000005
 Sum of Mulliken charges =   1.00000   1.00000

 Dipole moment (field-independent basis, Debye):
    X=             -2.0060    Y=             -1.8382    Z=              0.1109  Tot=              2.7231
 Quadrupole moment (field-independent basis, Debye-Ang):
   XX=           -221.2687   YY=           -235.7793   ZZ=           -253.1920
   XY=            -26.9200   XZ=            -21.6665   YZ=             11.5004

 Summary of Natural Population Analysis:

                                       Natural Population
                Natural  -----------------------------------------------
    Atom  No    Charge         Core      Valence    Rydberg      Total
 -----------------------------------------------------------------------
      C    1   -0.32157      0.99969     2.31602    0.00586     3.32157
      C    2    0.06259      0.99959     1.92868    0.00914     2.93741
      N    3   -0.23298      0.99967     2.72313    0.01018     3.73298
      C    4   -0.04338      0.99948     2.03504    0.00886     3.04338
      C    5    0.10418      0.99968     1.88672    0.00942     2.89582
      N    6   -0.18862      0.99967     2.66549    0.02346     3.68862
     Fe    7    0.77107      8.98640     3.22251    0.02001    12.22893
      C    8   -0.12111      0.99948     2.11300    0.00863     3.12111
      C    9   -0.10302      0.99952     2.09611    0.00739     3.10302
      C   10   -0.10841      0.99948     2.10126    0.00767     3.10841
      C   11   -0.12107      0.99945     2.11349    0.00813     3.12107
      N   12   -0.22224      0.99966     2.70203    0.02055     3.72224
      C   13    0.07169      0.99950     1.91817    0.01063     2.92831
      C   14   -0.01124      0.99944     2.00226    0.00953     3.01124
      C   15   -0.00275      0.99944     1.99483    0.00848     3.00275
      C   16    0.07888      0.99951     1.91120    0.01040     2.92112
      C   17   -0.32006      0.99970     2.31412    0.00625     3.32006
      C   18   -0.20825      0.99967     2.20160    0.00698     3.20825
      C   19   -0.25345      0.99964     2.24622    0.00760     3.25345
      C   20    0.38876      0.99976     1.59389    0.01760     2.61124
      O   21   -0.29709      0.99989     3.28481    0.01239     4.29709
      O   22   -0.31641      0.99981     3.30152    0.01507     4.31641
      N   23   -0.20870      0.99969     2.68819    0.02083     3.70870
      C   24    0.07942      0.99950     1.91114    0.00994     2.92058
      C   25    0.00438      0.99940     1.98762    0.00860     2.99562
      C   26   -0.02858      0.99941     2.01886    0.01031     3.02858
      C   27    0.09400      0.99952     1.89679    0.00969     2.90600
      C   28   -0.31946      0.99969     2.31613    0.00364     3.31946
      C   29   -0.11098      0.99955     2.10161    0.00982     3.11098
      C   30   -0.17605      0.99958     2.16762    0.00884     3.17605
      N   31   -0.20200      0.99968     2.68136    0.02095     3.70200
      C   32    0.08335      0.99950     1.90743    0.00972     2.91665
      C   33    0.00819      0.99940     1.98339    0.00902     2.99181
      C   34   -0.03810      0.99940     2.02837    0.01032     3.03810
      C   35    0.09465      0.99953     1.89595    0.00987     2.90535
      C   36   -0.32124      0.99970     2.31525    0.00630     3.32124
      C   37   -0.08096      0.99953     2.07037    0.01107     3.08096
      C   38   -0.18798      0.99955     2.17674    0.01169     3.18798
      N   39   -0.21577      0.99966     2.69403    0.02208     3.71577
      C   40    0.08674      0.99951     1.90351    0.01024     2.91326
      C   41    0.00586      0.99929     1.98642    0.00844     2.99414
      C   42   -0.02111      0.99926     2.01195    0.00990     3.02111
      C   43    0.07798      0.99949     1.91221    0.01032     2.92202
      C   44   -0.31960      0.99970     2.31636    0.00354     3.31960
      C   45   -0.19998      0.99967     2.19405    0.00627     3.19998
      C   46   -0.24785      0.99961     2.23968    0.00855     3.24785
      C   47    0.37648      0.99973     1.60475    0.01904     2.62352
      O   48   -0.28918      0.99989     3.27718    0.01210     4.28918
      O   49   -0.33419      0.99978     3.31977    0.01464     4.33419
      O   50   -0.34427      0.99992     3.33635    0.00800     4.34427
      H   51    0.12048      0.00000     0.37912    0.00040     0.37952
      H   52    0.11829      0.00000     0.38118    0.00053     0.38171
      H   53    0.11357      0.00000     0.38594    0.00049     0.38643
      H   54    0.11825      0.00000     0.38110    0.00065     0.38175
      H   55    0.22002      0.00000     0.27913    0.00084     0.27998
      H   56    0.11880      0.00000     0.38016    0.00104     0.38120
      H   57    0.24993      0.00000     0.24875    0.00132     0.25007
      H   58    0.17835      0.00000     0.31774    0.00391     0.32165
      H   59    0.10206      0.00000     0.39698    0.00095     0.39794
      H   60    0.10593      0.00000     0.39336    0.00071     0.39407
      H   61    0.10777      0.00000     0.39131    0.00093     0.39223
      H   62    0.11100      0.00000     0.38836    0.00065     0.38900
      H   63    0.11542      0.00000     0.38384    0.00074     0.38458
      H   64    0.12004      0.00000     0.37923    0.00072     0.37996
      H   65    0.11184      0.00000     0.38683    0.00133     0.38816
      H   66    0.11539      0.00000     0.38394    0.00067     0.38461
      H   67    0.11817      0.00000     0.38112    0.00071     0.38183
      H   68    0.11392      0.00000     0.38560    0.00047     0.38608
      H   69    0.11396      0.00000     0.38486    0.00118     0.38604
      H   70    0.11837      0.00000     0.38090    0.00073     0.38163
      H   71    0.11464      0.00000     0.38487    0.00049     0.38536
      H   72    0.11978      0.00000     0.37942    0.00080     0.38022
      H   73    0.11091      0.00000     0.38806    0.00103     0.38909
      H   74    0.10721      0.00000     0.39141    0.00138     0.39279
      H   75    0.10849      0.00000     0.39021    0.00130     0.39151
      H   76    0.11353      0.00000     0.38514    0.00133     0.38647
      H   77    0.11513      0.00000     0.38418    0.00069     0.38487
      H   78    0.11194      0.00000     0.38745    0.00060     0.38806
      H   79    0.11607      0.00000     0.38322    0.00072     0.38393
      H   80    0.11882      0.00000     0.38030    0.00088     0.38118
      H   81    0.10222      0.00000     0.39702    0.00076     0.39778
      H   82    0.10681      0.00000     0.39247    0.00072     0.39319
      H   83    0.12223      0.00000     0.37716    0.00061     0.37777
      H   84    0.26297      0.00000     0.23584    0.00119     0.23703
      H   85    0.10378      0.00000     0.39432    0.00190     0.39622
      H   86    0.12022      0.00000     0.37892    0.00086     0.37978
      H   87    0.09734      0.00000     0.40182    0.00083     0.40266
      H   88    0.11541      0.00000     0.38397    0.00061     0.38459
      H   89    0.11886      0.00000     0.38044    0.00070     0.38114
      H   90    0.25147      0.00000     0.24748    0.00104     0.24853
 =======================================================================
   * Total *    1.00000     57.96626   128.44834    0.58540   187.00000

 Normal termination of Gaussian 16 at Mon Sep 12 16:28:41 2022.
