 Gaussian 16, Revision A.03,
 Gaussian 16:  ES64L-G16RevA.03 25-Dec-2016

 ----------------------------------------------------------------------
 # PBE1PBE/def2TZVP scf=maxcycle=999 empiricaldispersion=GD3BJ int=(gri
 d=ultrafine) geom=check pop=nbo
 ----------------------------------------------------------------------

 ----------
 1aw3_III_H
 ----------
 Structure from the checkpoint file:  "1aw3_III_H.chk"
 Charge =  1 Multiplicity = 6

                         Standard orientation:
 ---------------------------------------------------------------------
 Center     Atomic      Atomic             Coordinates (Angstroms)
 Number     Number       Type             X           Y           Z
 ---------------------------------------------------------------------
      1          6           0       -1.448881   -0.351831    5.649911
      2          6           0       -1.144827    0.175470    4.267019
      3          7           0       -0.957151    1.500292    3.965529
      4          6           0       -1.138233   -0.513932    3.081518
      5          6           0       -0.831937    1.602772    2.635928
      6          7           0       -0.954543    0.405563    2.043046
      7          1           0       -2.458239   -0.705400    5.682857
      8          1           0       -1.322159    0.432559    6.366552
      9          1           0       -0.960672    2.267558    4.626269
     10          1           0       -1.276381   -1.572822    2.958989
     11          1           0       -0.678712    2.538031    2.129997
     12          6           0       -0.457788   -2.083737   -5.006504
     13          6           0       -0.591298   -1.060343   -3.914468
     14          7           0       -0.892034    0.271427   -4.074143
     15          6           0       -0.526984   -1.323384   -2.573249
     16          6           0       -0.998357    0.792493   -2.836554
     17          7           0       -0.797932   -0.143303   -1.882453
     18          1           0       -1.215552   -1.919440   -5.743864
     19          1           0       -0.569708   -3.063957   -4.592329
     20          1           0       -1.052591    0.759223   -4.954034
     21          1           0       -0.321712   -2.283608   -2.129788
     22          1           0       -1.234304    1.829589   -2.667156
     23          6           0        2.513473   -0.429642    0.336605
     24          6           0       -1.384778   -3.400560    0.689444
     25          6           0       -4.296533    0.417350   -0.310072
     26          6           0       -0.405767    3.450168   -0.370845
     27          6           0        1.690144   -1.552592    0.432324
     28          6           0        2.189766   -2.901512    0.538967
     29          6           0        1.109553   -3.736367    0.711937
     30          6           0       -0.078678   -2.918809    0.606922
     31          6           0        1.186924   -5.230017    0.938612
     32          6           0        3.636283   -3.320166    0.414843
     33          6           0        4.245663   -2.953623   -0.942011
     34          6           0        5.647330   -3.511565   -1.143925
     35          8           0        5.982278   -4.500007   -0.455878
     36          8           0        6.357568   -2.944754   -2.001081
     37          6           0       -2.495499   -2.590557    0.492207
     38          6           0       -3.858298   -3.067930    0.538492
     39          6           0       -4.641805   -1.993248    0.202751
     40          6           0       -3.811682   -0.837326    0.017569
     41          6           0       -4.321308   -4.461238    0.889527
     42          6           0       -6.150605   -1.971830    0.139032
     43          6           0       -6.824525   -2.939451   -0.501647
     44          6           0       -3.488434    1.547092   -0.401560
     45          6           0       -3.966747    2.853544   -0.774129
     46          6           0       -2.898880    3.705692   -0.657177
     47          6           0       -1.710255    2.939488   -0.389247
     48          6           0       -5.343111    3.200752   -1.267960
     49          6           0       -2.921076    5.180673   -0.988059
     50          6           0       -3.947155    5.979141   -0.618587
     51          6           0        0.729342    2.646868   -0.190646
     52          6           0        2.095599    3.120848   -0.213362
     53          6           0        2.917587    2.037714    0.026292
     54          6           0        2.060022    0.877236    0.145518
     55          6           0        2.541620    4.536042   -0.495706
     56          6           0        4.438267    2.017952    0.004840
     57          6           0        5.154360    3.116395    0.801482
     58          6           0        6.662578    2.970983    0.664109
     59          8           0        7.257943    2.330874    1.556033
     60          8           0        7.187969    3.494637   -0.341552
     61          7           0        0.334289   -1.620577    0.411786
     62          7           0       -2.526479   -1.238624    0.215202
     63          7           0       -2.131315    1.643964   -0.216250
     64          7           0        0.775966    1.299035    0.011763
     65         26           0       -0.887415    0.030362    0.104915
     66          1           0       -1.555534   -4.448745    0.866328
     67          1           0       -5.354131    0.500555   -0.494227
     68          1           0       -0.276780    4.509451   -0.522566
     69          1           0       -6.670709   -1.056618    0.347170
     70          1           0       -2.066654    5.619640   -1.474034
     71          1           0        3.568084   -0.595609    0.451880
     72          1           0        1.844035   -5.435218    1.782936
     73          1           0        0.216769   -5.672316    1.154150
     74          1           0        1.599062   -5.707902    0.050030
     75          1           0        4.228560   -2.853126    1.194594
     76          1           0        3.712160   -4.400031    0.542454
     77          1           0        3.594848   -3.353332   -1.703057
     78          1           0        4.296911   -1.878838   -1.092144
     79          1           0       -3.792366   -4.820598    1.770473
     80          1           0       -5.384969   -4.460714    1.118845
     81          1           0       -4.137945   -5.127718    0.048812
     82          1           0       -6.285091   -3.395439   -1.305582
     83          1           0       -7.903600   -2.914978   -0.535991
     84          1           0       -5.967029    3.523551   -0.433805
     85          1           0       -5.245141    4.000488   -2.001078
     86          1           0       -5.801245    2.347387   -1.761480
     87          1           0       -4.731124    5.601047    0.019994
     88          1           0       -3.865649    7.046772   -0.757982
     89          1           0        2.764315    5.040166    0.445051
     90          1           0        3.428866    4.517674   -1.129166
     91          1           0        1.778154    5.100972   -1.024485
     92          1           0        4.813532    1.093968    0.437656
     93          1           0        4.766686    2.032529   -1.035447
     94          1           0        4.895721    4.110882    0.454578
     95          1           0        4.889033    3.036727    1.852884
     96          1           0        0.506972   -1.996587   -5.460975
     97          1           0       -0.781568   -1.156076    5.879658
     98          1           0        7.006387    2.441992    2.475801
     99          1           0        7.020152   -2.305598   -1.728937
 ---------------------------------------------------------------------

 SCF Done:  E(UPBE1PBE) =  -3627.49893571     A.U. after   29 cycles

 Alpha virt. eigenvalues --    1.04292   1.04950   1.05208   1.05481   1.05760
 Alpha virt. eigenvalues --    1.06017   1.06739   1.06955   1.07427   1.07506
 Alpha virt. eigenvalues --    1.07833   1.07956   1.08524   1.08809   1.09464

  Beta  occ. eigenvalues -- -256.54352 -30.27462 -26.10692 -26.10676 -26.10600
  Beta  occ. eigenvalues --  -19.34014 -19.32295 -19.25275 -19.24937 -14.55814
  Beta  occ. eigenvalues --  -14.55618 -14.50262 -14.50098 -14.47038 -14.47032
  Beta  occ. eigenvalues --  -14.46948 -14.46707 -10.42396 -10.42359 -10.39632
  Beta  occ. eigenvalues --  -10.39278 -10.36506 -10.36421 -10.35698 -10.35431
  Beta  occ. eigenvalues --  -10.35369 -10.35325 -10.35309 -10.35224 -10.35052
  Beta  occ. eigenvalues --  -10.34955 -10.34216 -10.34163 -10.33214 -10.32723
  Beta  occ. eigenvalues --  -10.32704 -10.32516 -10.32192 -10.32185 -10.32163
  Beta  occ. eigenvalues --  -10.32083 -10.32072 -10.32059 -10.32014 -10.31910
  Beta  occ. eigenvalues --  -10.31688 -10.31609 -10.31506 -10.31434 -10.31381
  Beta  occ. eigenvalues --  -10.31081 -10.30672 -10.30491 -10.30453 -10.30291
  Beta  occ. eigenvalues --  -10.30050 -10.30023 -10.29696 -10.29501  -3.56462
  Beta  occ. eigenvalues --   -2.30810  -2.30754  -2.30735  -1.24383  -1.23398
  Beta  occ. eigenvalues --   -1.16207  -1.15936  -1.09977  -1.09844  -1.08377
  Beta  occ. eigenvalues --   -1.07449  -1.07436  -1.06507  -1.01602  -1.01457
  Beta  occ. eigenvalues --   -0.93921  -0.92299  -0.91931  -0.91711  -0.91365
  Beta  occ. eigenvalues --   -0.91168  -0.90988  -0.90701  -0.90627  -0.87777
  Beta  occ. eigenvalues --   -0.87047  -0.86258  -0.85975  -0.85607  -0.83235
  Beta  occ. eigenvalues --   -0.81931  -0.81690  -0.81101  -0.80778  -0.80056
  Beta  occ. eigenvalues --   -0.78689  -0.77662  -0.77128  -0.76061  -0.75859
  Beta  occ. eigenvalues --   -0.75550  -0.75265  -0.74533  -0.72643  -0.72471
  Beta  occ. eigenvalues --   -0.72390  -0.70034  -0.69181  -0.69045  -0.69017
  Beta  occ. eigenvalues --   -0.66567  -0.66320  -0.65247  -0.64415  -0.63794
  Beta  occ. eigenvalues --   -0.63195  -0.62520  -0.62139  -0.61553  -0.60414
  Beta  occ. eigenvalues --   -0.60325  -0.59060  -0.58554  -0.58493  -0.58405
  Beta  occ. eigenvalues --   -0.58163  -0.57741  -0.57665  -0.57530  -0.57419
  Beta  occ. eigenvalues --   -0.56494  -0.56177  -0.55728  -0.55084  -0.54710
  Beta  occ. eigenvalues --   -0.54500  -0.54297  -0.54023  -0.53761  -0.53564
  Beta  occ. eigenvalues --   -0.53485  -0.53194  -0.53151  -0.52941  -0.52761
  Beta  occ. eigenvalues --   -0.52632  -0.52400  -0.52233  -0.52063  -0.51978
  Beta  occ. eigenvalues --   -0.51577  -0.51530  -0.51425  -0.51026  -0.50898
  Beta  occ. eigenvalues --   -0.50450  -0.50178  -0.50023  -0.49809  -0.49601
  Beta  occ. eigenvalues --   -0.49216  -0.48709  -0.48623  -0.48249  -0.48118
  Beta  occ. eigenvalues --   -0.47553  -0.47437  -0.47277  -0.46702  -0.46539
  Beta  occ. eigenvalues --   -0.46244  -0.46045  -0.45720  -0.45274  -0.45027
  Beta  occ. eigenvalues --   -0.44594  -0.44006  -0.43884  -0.43186  -0.42965
  Beta  occ. eigenvalues --   -0.42599  -0.42423  -0.41865  -0.41450  -0.40600
  Beta  occ. eigenvalues --   -0.40379  -0.39834  -0.39353  -0.39013  -0.38783
  Beta  occ. eigenvalues --   -0.37615  -0.36842  -0.34882  -0.34816  -0.34491
  Beta  occ. eigenvalues --   -0.34286  -0.33266  -0.32973  -0.32248  -0.31936
  Beta  occ. eigenvalues --   -0.29838  -0.29273
  Beta virt. eigenvalues --   -0.19652  -0.19496  -0.17747  -0.16442  -0.16213
  Beta virt. eigenvalues --   -0.12037  -0.11339  -0.10518  -0.09304  -0.09022
  Beta virt. eigenvalues --   -0.08281  -0.08213  -0.07842  -0.07509  -0.06664

 Mulliken charges and spin densities:
               1          2
     1  C   -0.351988   0.001090
     2  C    0.118065   0.005149
     3  N   -0.199827   0.004797
     4  C   -0.182645   0.002941
     5  C    0.019129   0.014609
     6  N    0.132242   0.039557
     7  H    0.159293   0.000112
     8  H    0.130275   0.000211
     9  H    0.257013   0.001430
    10  H    0.169690   0.000668
    11  H    0.196322   0.000310
    12  C   -0.373718   0.000968
    13  C    0.151237   0.004788
    14  N   -0.202141   0.004449
    15  C   -0.193002   0.001885
    16  C    0.026311   0.013581
    17  N    0.097305   0.036676
    18  H    0.140755   0.000189
    19  H    0.152284   0.000043
    20  H    0.263721   0.001417
    21  H    0.161134   0.000543
    22  H    0.184971   0.000254
    23  C   -0.518370  -0.019193
    24  C   -0.607316  -0.018500
    25  C   -0.515944  -0.018960
    26  C   -0.591981  -0.010885
    27  C    0.271800   0.018213
    28  C   -0.017973   0.016335
    29  C   -0.000498   0.017712
    30  C    0.288658   0.014585
    31  C   -0.430516   0.000551
    32  C   -0.312321  -0.000494
    33  C   -0.241755   0.000522
    34  C    0.299153   0.000061
    35  O   -0.324101  -0.000009
    36  O   -0.347476   0.000027
    37  C    0.247763   0.012974
    38  C   -0.094955   0.014994
    39  C    0.042716   0.014982
    40  C    0.286131   0.017099
    41  C   -0.382873   0.000094
    42  C   -0.235779  -0.004397
    43  C   -0.273764   0.007371
    44  C    0.309765   0.015923
    45  C   -0.153843   0.010430
    46  C    0.148753   0.017489
    47  C    0.111719   0.011798
    48  C   -0.397693   0.000829
    49  C   -0.255903  -0.003094
    50  C   -0.244035   0.006366
    51  C    0.290145   0.008104
    52  C   -0.048780   0.016200
    53  C   -0.016986   0.009508
    54  C    0.334942   0.019031
    55  C   -0.437290   0.000714
    56  C   -0.356029   0.000590
    57  C   -0.248792   0.000343
    58  C    0.334382   0.000050
    59  O   -0.306086   0.000010
    60  O   -0.348227   0.000154
    61  N   -0.106882   0.063378
    62  N   -0.071261   0.063173
    63  N   -0.077593   0.071436
    64  N   -0.087396   0.063931
    65  Fe  -0.027902   4.418066
    66  H    0.135466   0.000319
    67  H    0.132374   0.000146
    68  H    0.127049  -0.000037
    69  H    0.127619   0.000498
    70  H    0.123039   0.000309
    71  H    0.138142  -0.000028
    72  H    0.161957   0.000671
    73  H    0.134541  -0.000032
    74  H    0.156786   0.000711
    75  H    0.128365   0.000561
    76  H    0.161781   0.000417
    77  H    0.132078  -0.000004
    78  H    0.111573  -0.000011
    79  H    0.136551   0.000404
    80  H    0.169726   0.000421
    81  H    0.147074   0.000618
    82  H    0.146341  -0.000392
    83  H    0.144702  -0.000110
    84  H    0.152342   0.000392
    85  H    0.171089   0.000435
    86  H    0.136504   0.000101
    87  H    0.141556  -0.000264
    88  H    0.145872  -0.000106
    89  H    0.161285   0.000622
    90  H    0.170414   0.000492
    91  H    0.135722   0.000087
    92  H    0.101945   0.000046
    93  H    0.153114   0.000307
    94  H    0.131699  -0.000001
    95  H    0.109932   0.000006
    96  H    0.156529   0.000171
    97  H    0.158389   0.000073
    98  H    0.353301  -0.000002
    99  H    0.363109   0.000004
 Sum of Mulliken charges =   1.00000   5.00000

 Dipole moment (field-independent basis, Debye):
    X=             -7.1351    Y=              3.6131    Z=              2.2298  Tot=              8.3028
 Quadrupole moment (field-independent basis, Debye-Ang):
   XX=           -299.3670   YY=           -286.7244   ZZ=           -237.7883
   XY=              5.5093   XZ=             20.7079   YZ=             15.0872

 Summary of Natural Population Analysis:

                                       Natural Population
                Natural  -----------------------------------------------
    Atom  No    Charge         Core      Valence    Rydberg      Total
 -----------------------------------------------------------------------
      C    1   -0.32029      0.99969     2.31719    0.00340     3.32029
      C    2    0.06415      0.99955     1.92750    0.00880     2.93585
      N    3   -0.23302      0.99968     2.72381    0.00953     3.73302
      C    4   -0.02963      0.99945     2.02170    0.00848     3.02963
      C    5    0.11924      0.99964     1.87083    0.01029     2.88076
      N    6   -0.17153      0.99970     2.65039    0.02144     3.67153
      H    7    0.11923      0.00000     0.38014    0.00063     0.38077
      H    8    0.11131      0.00000     0.38811    0.00058     0.38869
      H    9    0.21673      0.00000     0.28246    0.00081     0.28327
      H   10    0.12047      0.00000     0.37882    0.00071     0.37953
      H   11    0.11685      0.00000     0.38238    0.00077     0.38315
      C   12   -0.31944      0.99969     2.31642    0.00333     3.31944
      C   13    0.06474      0.99954     1.92711    0.00861     2.93526
      N   14   -0.23525      0.99968     2.72618    0.00938     3.73525
      C   15   -0.03084      0.99944     2.02244    0.00895     3.03084
      C   16    0.11927      0.99965     1.87091    0.01017     2.88073
      N   17   -0.17386      0.99971     2.65257    0.02157     3.67386
      H   18    0.11327      0.00000     0.38604    0.00068     0.38673
      H   19    0.11975      0.00000     0.37976    0.00048     0.38025
      H   20    0.21885      0.00000     0.28035    0.00081     0.28115
      H   21    0.12052      0.00000     0.37870    0.00078     0.37948
      H   22    0.11588      0.00000     0.38332    0.00079     0.38412
      C   23   -0.11062      0.99949     2.10346    0.00767     3.11062
      C   24   -0.11767      0.99943     2.11068    0.00756     3.11767
      C   25   -0.11220      0.99948     2.10513    0.00760     3.11220
      C   26   -0.12479      0.99945     2.11790    0.00745     3.12479
      C   27    0.08953      0.99950     1.90109    0.00988     2.91047
      C   28   -0.00056      0.99947     1.99180    0.00928     3.00056
      C   29    0.01072      0.99931     1.97925    0.01072     2.98928
      C   30    0.08099      0.99951     1.90898    0.01052     2.91901
      C   31   -0.32502      0.99971     2.32132    0.00399     3.32502
      C   32   -0.21967      0.99968     2.21217    0.00783     3.21967
      C   33   -0.25436      0.99964     2.24630    0.00843     3.25436
      C   34    0.38632      0.99975     1.59629    0.01764     2.61368
      O   35   -0.27955      0.99989     3.26794    0.01172     4.27955
      O   36   -0.34133      0.99979     3.32667    0.01487     4.34133
      C   37    0.08345      0.99950     1.90720    0.00984     2.91655
      C   38    0.01154      0.99945     1.98059    0.00842     2.98846
      C   39   -0.02896      0.99944     2.01936    0.01016     3.02896
      C   40    0.09451      0.99949     1.89602    0.00998     2.90549
      C   41   -0.32656      0.99971     2.32061    0.00624     3.32656
      C   42   -0.10430      0.99956     2.09539    0.00934     3.10430
      C   43   -0.18491      0.99956     2.17660    0.00875     3.18491
      C   44    0.08779      0.99949     1.90278    0.00993     2.91221
      C   45    0.00698      0.99946     1.98541    0.00816     2.99302
      C   46   -0.03181      0.99942     2.02248    0.00990     3.03181
      C   47    0.07924      0.99951     1.91115    0.01011     2.92076
      C   48   -0.32573      0.99971     2.31954    0.00648     3.32573
      C   49   -0.11016      0.99960     2.10174    0.00882     3.11016
      C   50   -0.17663      0.99962     2.16927    0.00774     3.17663
      C   51    0.07452      0.99952     1.91509    0.01088     2.92548
      C   52    0.00845      0.99932     1.98167    0.01056     2.99155
      C   53   -0.00937      0.99946     2.00038    0.00953     3.00937
      C   54    0.09017      0.99951     1.90047    0.00985     2.90983
      C   55   -0.32617      0.99972     2.32034    0.00611     3.32617
      C   56   -0.21206      0.99967     2.20560    0.00679     3.21206
      C   57   -0.25224      0.99965     2.24372    0.00888     3.25224
      C   58    0.38173      0.99974     1.60092    0.01761     2.61827
      O   59   -0.32265      0.99980     3.30760    0.01525     4.32265
      O   60   -0.28249      0.99989     3.27059    0.01201     4.28249
      N   61   -0.18958      0.99969     2.66844    0.02144     3.68958
      N   62   -0.17987      0.99969     2.65895    0.02123     3.67987
      N   63   -0.18815      0.99969     2.66749    0.02097     3.68815
      N   64   -0.18264      0.99968     2.66131    0.02165     3.68264
     Fe   65    2.45526      8.99567     1.50581    0.04326    10.54474
      H   66    0.11967      0.00000     0.37902    0.00132     0.38033
      H   67    0.11885      0.00000     0.38004    0.00112     0.38115
      H   68    0.11993      0.00000     0.37885    0.00121     0.38007
      H   69    0.10727      0.00000     0.39179    0.00094     0.39273
      H   70    0.10429      0.00000     0.39482    0.00089     0.39571
      H   71    0.11436      0.00000     0.38456    0.00108     0.38564
      H   72    0.11872      0.00000     0.38060    0.00069     0.38128
      H   73    0.11080      0.00000     0.38869    0.00052     0.38920
      H   74    0.11772      0.00000     0.38158    0.00069     0.38228
      H   75    0.11202      0.00000     0.38719    0.00079     0.38798
      H   76    0.12646      0.00000     0.37280    0.00074     0.37354
      H   77    0.11962      0.00000     0.37970    0.00068     0.38038
      H   78    0.10705      0.00000     0.39228    0.00067     0.39295
      H   79    0.11125      0.00000     0.38812    0.00063     0.38875
      H   80    0.12418      0.00000     0.37515    0.00067     0.37582
      H   81    0.11610      0.00000     0.38326    0.00064     0.38390
      H   82    0.10346      0.00000     0.39553    0.00101     0.39654
      H   83    0.10392      0.00000     0.39546    0.00062     0.39608
      H   84    0.11582      0.00000     0.38348    0.00071     0.38418
      H   85    0.12217      0.00000     0.37713    0.00070     0.37783
      H   86    0.11175      0.00000     0.38772    0.00054     0.38825
      H   87    0.10026      0.00000     0.39899    0.00076     0.39974
      H   88    0.10600      0.00000     0.39335    0.00064     0.39400
      H   89    0.11573      0.00000     0.38358    0.00070     0.38427
      H   90    0.11855      0.00000     0.38082    0.00063     0.38145
      H   91    0.11142      0.00000     0.38809    0.00048     0.38858
      H   92    0.10489      0.00000     0.39423    0.00088     0.39511
      H   93    0.12071      0.00000     0.37839    0.00090     0.37929
      H   94    0.11953      0.00000     0.37975    0.00072     0.38047
      H   95    0.09775      0.00000     0.40135    0.00090     0.40225
      H   96    0.11578      0.00000     0.38350    0.00072     0.38422
      H   97    0.12003      0.00000     0.37940    0.00057     0.37997
      H   98    0.25463      0.00000     0.24429    0.00108     0.24537
      H   99    0.26181      0.00000     0.23707    0.00112     0.23819
 =======================================================================
   * Total *    3.00005     62.97372   138.37321    0.65302   201.99995

 Normal termination of Gaussian 16 at Wed Feb  8 10:54:58 2023.
