 Gaussian 16, Revision A.03,
 Gaussian 16:  ES64L-G16RevA.03 25-Dec-2016

 ----------------------------------------------------------------------
 # PBE1PBE/def2TZVP empiricaldispersion=GD3BJ scf=maxcycle=999 geom=che
 ck pop=nbo
 ----------------------------------------------------------------------

 ---------
 1aw3_II_Q
 ---------
 Structure from the checkpoint file:  "1aw3_II_Q.chk"
 Charge =  0 Multiplicity = 5

                         Standard orientation:
 ---------------------------------------------------------------------
 Center     Atomic      Atomic             Coordinates (Angstroms)
 Number     Number       Type             X           Y           Z
 ---------------------------------------------------------------------
      1          6           0       -1.448881   -0.351831    5.649911
      2          6           0       -1.144827    0.175470    4.267019
      3          7           0       -0.957151    1.500292    3.965529
      4          6           0       -1.138233   -0.513932    3.081518
      5          6           0       -0.831937    1.602772    2.635928
      6          7           0       -0.954543    0.405563    2.043046
      7          1           0       -2.458239   -0.705400    5.682857
      8          1           0       -1.322159    0.432559    6.366552
      9          1           0       -0.960672    2.267558    4.626269
     10          1           0       -1.276381   -1.572822    2.958989
     11          1           0       -0.678712    2.538031    2.129997
     12          6           0       -0.457788   -2.083737   -5.006504
     13          6           0       -0.591298   -1.060343   -3.914468
     14          7           0       -0.892034    0.271427   -4.074143
     15          6           0       -0.526984   -1.323384   -2.573249
     16          6           0       -0.998357    0.792493   -2.836554
     17          7           0       -0.797932   -0.143303   -1.882453
     18          1           0       -1.215552   -1.919440   -5.743864
     19          1           0       -0.569708   -3.063957   -4.592329
     20          1           0       -1.052591    0.759223   -4.954034
     21          1           0       -0.321712   -2.283608   -2.129788
     22          1           0       -1.234304    1.829589   -2.667156
     23          6           0        2.513473   -0.429642    0.336605
     24          6           0       -1.384778   -3.400560    0.689444
     25          6           0       -4.296533    0.417350   -0.310072
     26          6           0       -0.405767    3.450168   -0.370845
     27          6           0        1.690144   -1.552592    0.432324
     28          6           0        2.189766   -2.901512    0.538967
     29          6           0        1.109553   -3.736367    0.711937
     30          6           0       -0.078678   -2.918809    0.606922
     31          6           0        1.186924   -5.230017    0.938612
     32          6           0        3.636283   -3.320166    0.414843
     33          6           0        4.245663   -2.953623   -0.942011
     34          6           0        5.647330   -3.511565   -1.143925
     35          8           0        5.982278   -4.500007   -0.455878
     36          8           0        6.357568   -2.944754   -2.001081
     37          6           0       -2.495499   -2.590557    0.492207
     38          6           0       -3.858298   -3.067930    0.538492
     39          6           0       -4.641805   -1.993248    0.202751
     40          6           0       -3.811682   -0.837326    0.017569
     41          6           0       -4.321308   -4.461238    0.889527
     42          6           0       -6.150605   -1.971830    0.139032
     43          6           0       -6.824525   -2.939451   -0.501647
     44          6           0       -3.488434    1.547092   -0.401560
     45          6           0       -3.966747    2.853544   -0.774129
     46          6           0       -2.898880    3.705692   -0.657177
     47          6           0       -1.710255    2.939488   -0.389247
     48          6           0       -5.343111    3.200752   -1.267960
     49          6           0       -2.921076    5.180673   -0.988059
     50          6           0       -3.947155    5.979141   -0.618587
     51          6           0        0.729342    2.646868   -0.190646
     52          6           0        2.095599    3.120848   -0.213362
     53          6           0        2.917587    2.037714    0.026292
     54          6           0        2.060022    0.877236    0.145518
     55          6           0        2.541620    4.536042   -0.495706
     56          6           0        4.438267    2.017952    0.004840
     57          6           0        5.154360    3.116395    0.801482
     58          6           0        6.662578    2.970983    0.664109
     59          8           0        7.257943    2.330874    1.556033
     60          8           0        7.187969    3.494637   -0.341552
     61          7           0        0.334289   -1.620577    0.411786
     62          7           0       -2.526479   -1.238624    0.215202
     63          7           0       -2.131315    1.643964   -0.216250
     64          7           0        0.775966    1.299035    0.011763
     65         26           0       -0.887415    0.030362    0.104915
     66          1           0       -1.555534   -4.448745    0.866328
     67          1           0       -5.354131    0.500555   -0.494227
     68          1           0       -0.276780    4.509451   -0.522566
     69          1           0       -6.670709   -1.056618    0.347170
     70          1           0       -2.066654    5.619640   -1.474034
     71          1           0        3.568084   -0.595609    0.451880
     72          1           0        1.844035   -5.435218    1.782936
     73          1           0        0.216769   -5.672316    1.154150
     74          1           0        1.599062   -5.707902    0.050030
     75          1           0        4.228560   -2.853126    1.194594
     76          1           0        3.712160   -4.400031    0.542454
     77          1           0        3.594848   -3.353332   -1.703057
     78          1           0        4.296911   -1.878838   -1.092144
     79          1           0       -3.792366   -4.820598    1.770473
     80          1           0       -5.384969   -4.460714    1.118845
     81          1           0       -4.137945   -5.127718    0.048812
     82          1           0       -6.285091   -3.395439   -1.305582
     83          1           0       -7.903600   -2.914978   -0.535991
     84          1           0       -5.967029    3.523551   -0.433805
     85          1           0       -5.245141    4.000488   -2.001078
     86          1           0       -5.801245    2.347387   -1.761480
     87          1           0       -4.731124    5.601047    0.019994
     88          1           0       -3.865649    7.046772   -0.757982
     89          1           0        2.764315    5.040166    0.445051
     90          1           0        3.428866    4.517674   -1.129166
     91          1           0        1.778154    5.100972   -1.024485
     92          1           0        4.813532    1.093968    0.437656
     93          1           0        4.766686    2.032529   -1.035447
     94          1           0        4.895721    4.110882    0.454578
     95          1           0        4.889033    3.036727    1.852884
     96          1           0        0.506972   -1.996587   -5.460975
     97          1           0       -0.781568   -1.156076    5.879658
     98          1           0        7.006387    2.441992    2.475801
     99          1           0        7.020152   -2.305598   -1.728937
 ---------------------------------------------------------------------

 SCF Done:  E(UPBE1PBE) =  -3627.66347049     A.U. after  130 cycles

 Alpha virt. eigenvalues --    1.14186   1.14469   1.15069   1.15256   1.15660
 Alpha virt. eigenvalues --    1.15864   1.16320   1.16614   1.16866   1.17500
 Alpha virt. eigenvalues --    1.17633   1.17717   1.18157   1.18756   1.19018

  Beta  occ. eigenvalues -- -256.32542 -30.05278 -25.89041 -25.88228 -25.88182
  Beta  occ. eigenvalues --  -19.27339 -19.25407 -19.18134 -19.18083 -14.45536
  Beta  occ. eigenvalues --  -14.45268 -14.38603 -14.38358 -14.35094 -14.35017
  Beta  occ. eigenvalues --  -14.34955 -14.34743 -10.35407 -10.35070 -10.28658
  Beta  occ. eigenvalues --  -10.28196 -10.26232 -10.26200 -10.24446 -10.24162
  Beta  occ. eigenvalues --  -10.24137 -10.23989 -10.23673 -10.23619 -10.23570
  Beta  occ. eigenvalues --  -10.23549 -10.23423 -10.23364 -10.23242 -10.23237
  Beta  occ. eigenvalues --  -10.23077 -10.22891 -10.22882 -10.22482 -10.22410
  Beta  occ. eigenvalues --  -10.21910 -10.21802 -10.21615 -10.21605 -10.21599
  Beta  occ. eigenvalues --  -10.21561 -10.21538 -10.21410 -10.21359 -10.21342
  Beta  occ. eigenvalues --  -10.21290 -10.21134 -10.21092 -10.21042 -10.20937
  Beta  occ. eigenvalues --  -10.20908 -10.20773 -10.20540 -10.20522  -3.35910
  Beta  occ. eigenvalues --   -2.10752  -2.10581  -2.10450  -1.17663  -1.16458
  Beta  occ. eigenvalues --   -1.05561  -1.05367  -1.03161  -1.02743  -0.96883
  Beta  occ. eigenvalues --   -0.96008  -0.95964  -0.95067  -0.90599  -0.90479
  Beta  occ. eigenvalues --   -0.83211  -0.82791  -0.82133  -0.81622  -0.81418
  Beta  occ. eigenvalues --   -0.80984  -0.80865  -0.80345  -0.80164  -0.78234
  Beta  occ. eigenvalues --   -0.77637  -0.76625  -0.75969  -0.74941  -0.73331
  Beta  occ. eigenvalues --   -0.72205  -0.71973  -0.71945  -0.71039  -0.70099
  Beta  occ. eigenvalues --   -0.69819  -0.69154  -0.68432  -0.66287  -0.65474
  Beta  occ. eigenvalues --   -0.64974  -0.64857  -0.64735  -0.63813  -0.62065
  Beta  occ. eigenvalues --   -0.62013  -0.60261  -0.59500  -0.58288  -0.57883
  Beta  occ. eigenvalues --   -0.56149  -0.55983  -0.54975  -0.54209  -0.53684
  Beta  occ. eigenvalues --   -0.53449  -0.52611  -0.52517  -0.51722  -0.51341
  Beta  occ. eigenvalues --   -0.51035  -0.50135  -0.49828  -0.49546  -0.48890
  Beta  occ. eigenvalues --   -0.48468  -0.48152  -0.48007  -0.47692  -0.47671
  Beta  occ. eigenvalues --   -0.47577  -0.47325  -0.45847  -0.45559  -0.45150
  Beta  occ. eigenvalues --   -0.44815  -0.44516  -0.44105  -0.43934  -0.43724
  Beta  occ. eigenvalues --   -0.43485  -0.43391  -0.43219  -0.43113  -0.43034
  Beta  occ. eigenvalues --   -0.42943  -0.42870  -0.42840  -0.42634  -0.42404
  Beta  occ. eigenvalues --   -0.42288  -0.42258  -0.42072  -0.41554  -0.41018
  Beta  occ. eigenvalues --   -0.40540  -0.40381  -0.40018  -0.39759  -0.39692
  Beta  occ. eigenvalues --   -0.39431  -0.39333  -0.39018  -0.38656  -0.38477
  Beta  occ. eigenvalues --   -0.38216  -0.37747  -0.37446  -0.37068  -0.36684
  Beta  occ. eigenvalues --   -0.36634  -0.36367  -0.36127  -0.34840  -0.34571
  Beta  occ. eigenvalues --   -0.34391  -0.34148  -0.34009  -0.33643  -0.32941
  Beta  occ. eigenvalues --   -0.32683  -0.32347  -0.31846  -0.31767  -0.31429
  Beta  occ. eigenvalues --   -0.30104  -0.29152  -0.28764  -0.28168  -0.27789
  Beta  occ. eigenvalues --   -0.27654  -0.27575  -0.27043  -0.26701  -0.24286
  Beta  occ. eigenvalues --   -0.23922  -0.22903  -0.22639  -0.21904  -0.21770
  Beta  occ. eigenvalues --   -0.18803  -0.18771  -0.13241
  Beta virt. eigenvalues --   -0.07443  -0.06103  -0.02370  -0.01342  -0.01146
  Beta virt. eigenvalues --   -0.00624  -0.00077   0.00568   0.01272   0.01505
  Beta virt. eigenvalues --    0.01823   0.02095   0.02325   0.02534   0.03466

 Mulliken charges and spin densities:
               1          2
     1  C   -0.362938   0.001046
     2  C    0.127671   0.001146
     3  N   -0.215848   0.003179
     4  C   -0.187252   0.003805
     5  C    0.013275   0.012011
     6  N    0.103643   0.013338
     7  H    0.149213  -0.000019
     8  H    0.114867  -0.000076
     9  H    0.237218   0.002371
    10  H    0.157618   0.001270
    11  H    0.183319   0.000841
    12  C   -0.385657   0.000872
    13  C    0.159445   0.000719
    14  N   -0.218750   0.003451
    15  C   -0.190773   0.004266
    16  C    0.022984   0.017008
    17  N    0.072059   0.011654
    18  H    0.125571  -0.000047
    19  H    0.148117   0.000034
    20  H    0.244053   0.002340
    21  H    0.148490   0.001068
    22  H    0.170301   0.000307
    23  C   -0.521588   0.018455
    24  C   -0.637092  -0.068127
    25  C   -0.522417   0.019197
    26  C   -0.630849  -0.083419
    27  C    0.255745  -0.052491
    28  C   -0.021785   0.041729
    29  C   -0.008390  -0.044940
    30  C    0.282195   0.025307
    31  C   -0.445327   0.003760
    32  C   -0.313046  -0.001967
    33  C   -0.238699   0.000918
    34  C    0.296283   0.000251
    35  O   -0.336012  -0.000064
    36  O   -0.351454   0.000037
    37  C    0.240803   0.019553
    38  C   -0.100652  -0.046443
    39  C    0.045699   0.037612
    40  C    0.273026  -0.054584
    41  C   -0.392143   0.004581
    42  C   -0.243320  -0.010636
    43  C   -0.283002   0.013475
    44  C    0.294489  -0.054824
    45  C   -0.147262   0.047165
    46  C    0.131381  -0.049846
    47  C    0.116008   0.030707
    48  C   -0.407202  -0.001914
    49  C   -0.255043   0.018233
    50  C   -0.260616  -0.023373
    51  C    0.292048   0.019414
    52  C   -0.054957  -0.047618
    53  C   -0.019950   0.037074
    54  C    0.313779  -0.054331
    55  C   -0.450891   0.005117
    56  C   -0.354718  -0.001039
    57  C   -0.237652   0.000756
    58  C    0.332483   0.000174
    59  O   -0.312134   0.000009
    60  O   -0.361214   0.000144
    61  N   -0.105686   0.052688
    62  N   -0.088484   0.043437
    63  N   -0.084956   0.048567
    64  N   -0.104485   0.043604
    65  Fe   0.000630   3.984125
    66  H    0.112521   0.003013
    67  H    0.109675  -0.001399
    68  H    0.102904   0.004103
    69  H    0.115437   0.001208
    70  H    0.107834  -0.002277
    71  H    0.114900  -0.001547
    72  H    0.144540  -0.001129
    73  H    0.125731  -0.000028
    74  H    0.140132  -0.001580
    75  H    0.114461   0.000964
    76  H    0.147377   0.000392
    77  H    0.128872   0.000012
    78  H    0.114239   0.000000
    79  H    0.125310  -0.001413
    80  H    0.154461   0.000131
    81  H    0.130130  -0.002883
    82  H    0.135839  -0.000628
    83  H    0.121301  -0.000371
    84  H    0.135445   0.001981
    85  H    0.157166   0.001031
    86  H    0.128524   0.000258
    87  H    0.129064   0.000891
    88  H    0.122145   0.001321
    89  H    0.143154  -0.002569
    90  H    0.153863  -0.000869
    91  H    0.127753  -0.000812
    92  H    0.095131   0.000175
    93  H    0.137933   0.000988
    94  H    0.123204  -0.000065
    95  H    0.102028  -0.000006
    96  H    0.142233   0.000007
    97  H    0.148769   0.000015
    98  H    0.350670  -0.000002
    99  H    0.357084   0.000033
 Sum of Mulliken charges =  -0.00000   4.00000

 Dipole moment (field-independent basis, Debye):
    X=             -3.0470    Y=              3.2653    Z=              2.0914  Tot=              4.9315
 Quadrupole moment (field-independent basis, Debye-Ang):
   XX=           -364.6422   YY=           -343.1472   ZZ=           -266.1445
   XY=              5.8300   XZ=             19.4798   YZ=             17.7314

 Summary of Natural Population Analysis:

                                       Natural Population
                Natural  -----------------------------------------------
    Atom  No    Charge         Core      Valence    Rydberg      Total
 -----------------------------------------------------------------------
      C    1   -0.31833      0.99969     2.31553    0.00310     3.31833
      C    2    0.04870      0.99956     1.94244    0.00930     2.95130
      N    3   -0.24026      0.99968     2.73081    0.00978     3.74026
      C    4   -0.03031      0.99946     2.02165    0.00920     3.03031
      C    5    0.10828      0.99966     1.88074    0.01132     2.89172
      N    6   -0.17490      0.99972     2.65351    0.02167     3.67490
      H    7    0.11486      0.00000     0.38450    0.00064     0.38514
      H    8    0.10580      0.00000     0.39358    0.00062     0.39420
      H    9    0.21006      0.00000     0.28912    0.00082     0.28994
      H   10    0.11708      0.00000     0.38210    0.00082     0.38292
      H   11    0.11404      0.00000     0.38504    0.00092     0.38596
      C   12   -0.31755      0.99969     2.31474    0.00311     3.31755
      C   13    0.04944      0.99954     1.94165    0.00937     2.95056
      N   14   -0.24226      0.99968     2.73304    0.00954     3.74226
      C   15   -0.02960      0.99945     2.02054    0.00961     3.02960
      C   16    0.11104      0.99967     1.87819    0.01110     2.88896
      N   17   -0.17751      0.99973     2.65633    0.02145     3.67751
      H   18    0.10763      0.00000     0.39165    0.00072     0.39237
      H   19    0.11737      0.00000     0.38216    0.00047     0.38263
      H   20    0.21215      0.00000     0.28704    0.00081     0.28785
      H   21    0.11714      0.00000     0.38196    0.00090     0.38286
      H   22    0.11330      0.00000     0.38582    0.00088     0.38670
      C   23   -0.09926      0.99949     2.09200    0.00777     3.09926
      C   24   -0.15719      0.99947     2.14934    0.00838     3.15719
      C   25   -0.09830      0.99948     2.09096    0.00786     3.09830
      C   26   -0.17631      0.99949     2.16857    0.00825     3.17631
      C   27    0.03854      0.99951     1.95112    0.01083     2.96146
      C   28    0.00461      0.99946     1.98700    0.00893     2.99539
      C   29   -0.04312      0.99946     2.03509    0.00857     3.04312
      C   30    0.08828      0.99951     1.90151    0.01070     2.91172
      C   31   -0.32016      0.99971     2.31629    0.00416     3.32016
      C   32   -0.21663      0.99968     2.20921    0.00774     3.21663
      C   33   -0.25528      0.99964     2.24712    0.00852     3.25528
      C   34    0.38742      0.99975     1.59500    0.01783     2.61258
      O   35   -0.28598      0.99989     3.27437    0.01172     4.28598
      O   36   -0.34381      0.99979     3.32920    0.01482     4.34381
      C   37    0.08678      0.99951     1.90368    0.01003     2.91322
      C   38   -0.03289      0.99945     2.02465    0.00879     3.03289
      C   39   -0.02865      0.99944     2.01855    0.01065     3.02865
      C   40    0.04529      0.99950     1.94513    0.01008     2.95471
      C   41   -0.32206      0.99971     2.31848    0.00387     3.32206
      C   42   -0.09685      0.99957     2.08764    0.00964     3.09685
      C   43   -0.20210      0.99956     2.19350    0.00905     3.20210
      C   44    0.03514      0.99950     1.95419    0.01117     2.96486
      C   45    0.02031      0.99946     1.97176    0.00847     2.97969
      C   46   -0.08126      0.99942     2.07145    0.01040     3.08126
      C   47    0.08863      0.99951     1.90113    0.01072     2.91137
      C   48   -0.32551      0.99971     2.31926    0.00654     3.32551
      C   49   -0.09145      0.99960     2.08285    0.00900     3.09145
      C   50   -0.21212      0.99962     2.20426    0.00824     3.21212
      C   51    0.08395      0.99952     1.90623    0.01030     2.91605
      C   52   -0.04570      0.99947     2.03779    0.00844     3.04570
      C   53   -0.00598      0.99946     1.99742    0.00910     3.00598
      C   54    0.04323      0.99952     1.94724    0.01001     2.95677
      C   55   -0.32076      0.99971     2.31697    0.00408     3.32076
      C   56   -0.20922      0.99967     2.20277    0.00678     3.20922
      C   57   -0.25232      0.99965     2.24384    0.00883     3.25232
      C   58    0.38346      0.99974     1.59899    0.01782     2.61654
      O   59   -0.32535      0.99980     3.31042    0.01513     4.32535
      O   60   -0.28956      0.99989     3.27773    0.01193     4.28956
      N   61   -0.18973      0.99971     2.66817    0.02185     3.68973
      N   62   -0.18659      0.99971     2.66723    0.01964     3.68659
      N   63   -0.19393      0.99971     2.67289    0.02132     3.69393
      N   64   -0.19139      0.99970     2.67145    0.02024     3.69139
     Fe   65    2.17695      8.99527     1.79285    0.03492    10.82305
      H   66    0.11315      0.00000     0.38552    0.00133     0.38685
      H   67    0.11069      0.00000     0.38814    0.00117     0.38931
      H   68    0.11368      0.00000     0.38512    0.00119     0.38632
      H   69    0.10349      0.00000     0.39550    0.00101     0.39651
      H   70    0.09921      0.00000     0.39973    0.00106     0.40079
      H   71    0.10568      0.00000     0.39327    0.00105     0.39432
      H   72    0.11109      0.00000     0.38811    0.00080     0.38891
      H   73    0.10807      0.00000     0.39138    0.00054     0.39193
      H   74    0.11004      0.00000     0.38915    0.00081     0.38996
      H   75    0.10653      0.00000     0.39240    0.00106     0.39347
      H   76    0.12156      0.00000     0.37767    0.00077     0.37844
      H   77    0.12003      0.00000     0.37926    0.00071     0.37997
      H   78    0.10941      0.00000     0.38990    0.00069     0.39059
      H   79    0.10586      0.00000     0.39328    0.00086     0.39414
      H   80    0.11857      0.00000     0.38059    0.00084     0.38143
      H   81    0.10844      0.00000     0.39067    0.00089     0.39156
      H   82    0.10231      0.00000     0.39661    0.00108     0.39769
      H   83    0.09731      0.00000     0.40199    0.00071     0.40269
      H   84    0.11100      0.00000     0.38822    0.00078     0.38900
      H   85    0.11778      0.00000     0.38145    0.00077     0.38222
      H   86    0.10895      0.00000     0.39045    0.00061     0.39105
      H   87    0.09885      0.00000     0.40034    0.00081     0.40115
      H   88    0.09984      0.00000     0.39944    0.00073     0.40016
      H   89    0.10727      0.00000     0.39179    0.00094     0.39273
      H   90    0.11118      0.00000     0.38801    0.00081     0.38882
      H   91    0.10846      0.00000     0.39087    0.00067     0.39154
      H   92    0.10299      0.00000     0.39612    0.00089     0.39701
      H   93    0.11472      0.00000     0.38407    0.00121     0.38528
      H   94    0.11867      0.00000     0.38055    0.00078     0.38133
      H   95    0.09652      0.00000     0.40256    0.00092     0.40348
      H   96    0.10997      0.00000     0.38928    0.00075     0.39003
      H   97    0.11567      0.00000     0.38375    0.00058     0.38433
      H   98    0.25373      0.00000     0.24515    0.00111     0.24627
      H   99    0.25990      0.00000     0.23890    0.00119     0.24010
 =======================================================================
   * Total *    2.00000     62.97396   139.37665    0.64938   203.00000

 Normal termination of Gaussian 16 at Wed Feb  8 03:18:05 2023.
