 Gaussian 16, Revision A.03,
 Gaussian 16:  ES64L-G16RevA.03 25-Dec-2016

 ----------------------------------------------------------------------
 # PBE1PBE/def2TZVP guess=read scf=maxcycle=999 empiricaldispersion=GD3
 BJ geom=check pop=nbo
 ----------------------------------------------------------------------

 ---------
 1c6r_II_Q
 ---------
 Structure from the checkpoint file:  "1c6r_II_Qn.chk"
 Charge =  0 Multiplicity = 5

                         Standard orientation:
 ---------------------------------------------------------------------
 Center     Atomic      Atomic             Coordinates (Angstroms)
 Number     Number       Type             X           Y           Z
 ---------------------------------------------------------------------
      1          6           0        2.736242   -1.776043    4.898489
      2          6           0        1.883989   -1.152163    3.834226
      3          7           0        0.549537   -0.869223    4.024381
      4          6           0        2.163217   -0.809694    2.554077
      5          6           0        0.037210   -0.387008    2.905909
      6          7           0        0.996331   -0.339799    1.998544
      7          6           0       -1.121194    2.447425   -2.919353
      8          6           0       -0.477081    1.206254   -3.522607
      9         16           0        0.855251    0.546857   -2.529984
     10          6           0        1.307309   -0.917554   -3.518704
     11          6           0       -2.452476   -0.302014   -0.004859
     12          6           0        1.190179   -3.341197   -0.705720
     13          6           0        4.205773    0.356876   -0.436711
     14          6           0        0.636291    3.287494    0.979221
     15          6           0       -1.751367   -1.480337   -0.183986
     16          6           0       -2.369027   -2.801194   -0.339528
     17          6           0       -1.326576   -3.648109   -0.638721
     18          6           0       -0.109593   -2.852222   -0.564296
     19          6           0       -1.395852   -5.121432   -1.039331
     20          6           0       -3.890341   -3.101707   -0.156806
     21          6           0       -4.402298   -3.010647    1.296247
     22          6           0       -5.923453   -3.084036    1.415627
     23          8           0       -6.419370   -3.374962    2.534089
     24          8           0       -6.627206   -2.826887    0.413953
     25          6           0        2.363236   -2.586173   -0.693935
     26          6           0        3.684907   -3.108953   -0.876683
     27          6           0        4.539660   -2.057220   -0.897027
     28          6           0        3.703305   -0.905992   -0.689675
     29          6           0        4.015606   -4.589969   -1.003218
     30          6           0        5.937894   -2.043612   -1.123315
     31          6           0        6.478357   -2.342578   -2.385349
     32          6           0        3.518583    1.453110    0.004053
     33          6           0        4.119993    2.723094    0.359285
     34          6           0        3.133375    3.516717    0.820229
     35          6           0        1.911080    2.758917    0.732570
     36          6           0        5.615681    2.986007    0.419954
     37          6           0        3.267557    4.758189    1.472659
     38          6           0        3.635550    5.918056    0.757325
     39          6           0       -0.536506    2.603013    0.713125
     40          6           0       -1.897794    3.166591    0.757848
     41          6           0       -2.755821    2.174098    0.414640
     42          6           0       -1.932585    0.976801    0.181374
     43          6           0       -2.273862    4.556564    1.186588
     44          6           0       -4.256939    2.257772    0.280854
     45          6           0       -4.600448    2.323799   -1.190363
     46          6           0       -6.052051    2.705642   -1.427561
     47          8           0       -6.927044    1.812214   -1.431703
     48          8           0       -6.342982    3.905097   -1.580619
     49          7           0       -0.390255   -1.522294   -0.311070
     50          7           0        2.390691   -1.235478   -0.545656
     51          7           0        2.168352    1.465181    0.237144
     52          7           0       -0.581066    1.253457    0.288007
     53         26           0        0.900382   -0.022733   -0.086298
     54          1           0       -7.558144   -3.061246    0.408417
     55          1           0       -3.976441   -3.814701    1.859312
     56          1           0       -4.071037   -2.084546    1.717558
     57          1           0       -4.444431   -2.407006   -0.752856
     58          1           0       -4.084250   -4.089127   -0.520538
     59          1           0       -2.376239   -5.500001   -0.838268
     60          1           0       -1.183695   -5.217435   -2.083684
     61          1           0       -0.676122   -5.678309   -0.476503
     62          1           0        1.297200   -4.397853   -0.835818
     63          1           0        3.126999   -5.167652   -0.856384
     64          1           0        4.410848   -4.785133   -1.978203
     65          1           0        4.741345   -4.857795   -0.263980
     66          1           0        5.944017   -2.979497   -3.058932
     67          1           0        7.424277   -1.933331   -2.672842
     68          1           0        6.596599   -1.800465   -0.315919
     69          1           0        5.253742    0.491703   -0.605477
     70          1           0        6.089599    2.218821    0.995911
     71          1           0        6.018030    2.987664   -0.571516
     72          1           0        5.792415    3.936636    0.878179
     73          1           0        3.256084    6.873171    1.055084
     74          1           0        4.293970    5.842170   -0.082690
     75          1           0        3.087938    4.822748    2.525498
     76          1           0        0.566579    4.271059    1.394719
     77          1           0       -2.613809    4.537223    2.200966
     78          1           0       -1.420296    5.197070    1.108631
     79          1           0       -3.055310    4.925316    0.555509
     80          1           0       -3.519477   -0.381915   -0.009894
     81          1           0       -4.706814    1.390762    0.717667
     82          1           0       -4.614533    3.137171    0.774498
     83          1           0       -4.417467    1.366561   -1.632078
     84          1           0       -3.970141    3.049130   -1.661010
     85          1           0       -7.113335    4.272077   -1.140754
     86          1           0       -1.458655    2.228068   -1.927939
     87          1           0       -0.403746    3.240496   -2.884612
     88          1           0       -1.953732    2.745753   -3.521667
     89          1           0       -1.226906    0.451216   -3.634769
     90          1           0       -0.093008    1.455220   -4.489769
     91          1           0        0.470968   -1.582677   -3.573893
     92          1           0        1.584199   -0.610067   -4.505458
     93          1           0        2.131968   -1.419047   -3.056814
     94          1           0        2.250615   -2.651209    5.276841
     95          1           0        3.684772   -2.045819    4.483264
     96          1           0        2.881521   -1.076311    5.694836
     97          1           0        0.046076   -1.007408    4.877278
     98          1           0       -0.979338   -0.086520    2.760176
     99          1           0        3.112514   -0.889636    2.066897
 ---------------------------------------------------------------------

 SCF Done:  E(UPBE1PBE) =  -3879.37498700     A.U. after  109 cycles

 Alpha virt. eigenvalues --    1.01754   1.02087   1.02387   1.02709   1.03063
 Alpha virt. eigenvalues --    1.03594   1.03762   1.04006   1.04308   1.04458
 Alpha virt. eigenvalues --    1.04603   1.04842   1.05103   1.05197   1.05713

  Beta  occ. eigenvalues -- -256.41373 -89.01473 -30.15823 -25.99759 -25.99600
  Beta  occ. eigenvalues --  -25.97061 -19.26684 -19.26251 -19.17169 -19.16882
  Beta  occ. eigenvalues --  -14.45322 -14.38621 -14.38497 -14.38230 -14.37532
  Beta  occ. eigenvalues --  -14.37385 -10.35027 -10.34686 -10.28726 -10.26585
  Beta  occ. eigenvalues --  -10.24975 -10.24717 -10.24260 -10.23993 -10.23930
  Beta  occ. eigenvalues --  -10.23928 -10.23928 -10.23859 -10.23824 -10.23398
  Beta  occ. eigenvalues --  -10.23327 -10.23306 -10.23212 -10.23051 -10.22946
  Beta  occ. eigenvalues --  -10.22804 -10.22799 -10.22716 -10.22396 -10.22368
  Beta  occ. eigenvalues --  -10.22182 -10.22181 -10.22150 -10.21688 -10.21645
  Beta  occ. eigenvalues --  -10.21543 -10.21353 -10.21256 -10.21157 -10.21104
  Beta  occ. eigenvalues --  -10.21020 -10.20714 -10.20451 -10.20217 -10.19983
  Beta  occ. eigenvalues --  -10.19329 -10.18589  -7.99386  -5.93064  -5.92748
  Beta  occ. eigenvalues --   -5.92155  -3.46212  -2.23059  -2.21428  -2.18168
  Beta  occ. eigenvalues --   -1.17235  -1.16948  -1.07130  -1.01863  -1.01396
  Beta  occ. eigenvalues --   -0.98503  -0.96838  -0.96328  -0.95284  -0.91278
  Beta  occ. eigenvalues --   -0.84059  -0.83514  -0.83253  -0.83106  -0.82725
  Beta  occ. eigenvalues --   -0.82166  -0.81958  -0.80359  -0.80073  -0.79185
  Beta  occ. eigenvalues --   -0.78325  -0.76698  -0.76246  -0.75976  -0.74198
  Beta  occ. eigenvalues --   -0.73569  -0.73218  -0.72671  -0.71716  -0.70934
  Beta  occ. eigenvalues --   -0.70015  -0.69605  -0.68740  -0.67035  -0.65772
  Beta  occ. eigenvalues --   -0.65366  -0.65243  -0.64662  -0.64081  -0.62886
  Beta  occ. eigenvalues --   -0.62112  -0.61856  -0.60214  -0.58281  -0.57219
  Beta  occ. eigenvalues --   -0.57016  -0.55422  -0.54673  -0.54307  -0.53695
  Beta  occ. eigenvalues --   -0.52376  -0.52161  -0.51906  -0.51053  -0.50846
  Beta  occ. eigenvalues --   -0.50413  -0.50349  -0.49607  -0.49124  -0.48775
  Beta  occ. eigenvalues --   -0.48560  -0.48485  -0.48379  -0.47880  -0.47698
  Beta  occ. eigenvalues --   -0.46467  -0.46343  -0.45743  -0.45662  -0.45491
  Beta  occ. eigenvalues --   -0.45119  -0.44820  -0.44678  -0.44262  -0.44152
  Beta  occ. eigenvalues --   -0.43895  -0.43697  -0.43557  -0.43508  -0.43206
  Beta  occ. eigenvalues --   -0.43146  -0.42953  -0.42795  -0.42743  -0.42561
  Beta  occ. eigenvalues --   -0.41904  -0.41841  -0.41682  -0.41174  -0.40504
  Beta  occ. eigenvalues --   -0.40064  -0.39919  -0.39674  -0.39293  -0.39181
  Beta  occ. eigenvalues --   -0.39137  -0.38844  -0.38503  -0.38355  -0.38265
  Beta  occ. eigenvalues --   -0.38095  -0.38033  -0.37798  -0.37340  -0.37310
  Beta  occ. eigenvalues --   -0.36755  -0.36532  -0.36238  -0.36132  -0.35819
  Beta  occ. eigenvalues --   -0.35605  -0.35126  -0.34516  -0.34294  -0.33776
  Beta  occ. eigenvalues --   -0.32995  -0.32700  -0.32295  -0.32194  -0.31653
  Beta  occ. eigenvalues --   -0.31334  -0.30924  -0.27990  -0.27556  -0.27235
  Beta  occ. eigenvalues --   -0.27068  -0.26978  -0.25741  -0.25636  -0.25311
  Beta  occ. eigenvalues --   -0.24700  -0.23462  -0.22911  -0.22285  -0.21583
  Beta  occ. eigenvalues --   -0.18209  -0.17816
  Beta virt. eigenvalues --   -0.08412  -0.07349  -0.06197  -0.04011  -0.02869
  Beta virt. eigenvalues --   -0.02072  -0.01523  -0.00301   0.00192   0.00557
  Beta virt. eigenvalues --    0.01437   0.01764   0.02124   0.02757   0.03409

 Mulliken charges and spin densities:
               1          2
     1  C   -0.385606   0.000883
     2  C    0.157710   0.003180
     3  N   -0.212107   0.001711
     4  C   -0.192218   0.001197
     5  C    0.031696   0.003163
     6  N   -0.035071   0.051778
     7  C   -0.316834  -0.001165
     8  C   -0.198381   0.009630
     9  S    0.014297   0.058882
    10  C   -0.367686  -0.000438
    11  C   -0.673398   0.265432
    12  C   -0.467653  -0.107033
    13  C   -0.555346   0.268293
    14  C   -0.499403  -0.118250
    15  C    0.291456  -0.053725
    16  C    0.001454   0.109764
    17  C   -0.061910  -0.042538
    18  C    0.209621   0.141621
    19  C   -0.401510   0.002932
    20  C   -0.344856  -0.011766
    21  C   -0.185123   0.004025
    22  C    0.267622   0.000267
    23  O   -0.392809   0.000589
    24  O   -0.315384  -0.000034
    25  C    0.298551   0.139796
    26  C   -0.073804  -0.050569
    27  C    0.074860   0.105542
    28  C    0.202762  -0.051442
    29  C   -0.370662   0.000829
    30  C   -0.263805  -0.026132
    31  C   -0.262852   0.024484
    32  C    0.316576  -0.062550
    33  C   -0.107871   0.119670
    34  C    0.130594  -0.059877
    35  C    0.152754   0.170493
    36  C   -0.397543  -0.010632
    37  C   -0.298882   0.021662
    38  C   -0.262896  -0.022201
    39  C    0.318893   0.169071
    40  C   -0.013565  -0.046553
    41  C    0.025927   0.108002
    42  C    0.238441  -0.052932
    43  C   -0.438107   0.001556
    44  C   -0.368112  -0.012625
    45  C   -0.137893   0.004571
    46  C    0.268443   0.001518
    47  O   -0.380591   0.000944
    48  O   -0.333153  -0.000097
    49  N   -0.009311   0.001325
    50  N   -0.039819  -0.052133
    51  N    0.010133   0.003751
    52  N    0.003552  -0.060784
    53  Fe  -0.280320   3.028098
    54  H    0.345322   0.000121
    55  H    0.134599   0.000012
    56  H    0.135943   0.000222
    57  H    0.142579   0.004501
    58  H    0.116549   0.000388
    59  H    0.124810  -0.000038
    60  H    0.143189  -0.001061
    61  H    0.132669  -0.000925
    62  H    0.091806   0.004985
    63  H    0.119968   0.000004
    64  H    0.126741   0.000135
    65  H    0.131026  -0.000345
    66  H    0.129536  -0.001208
    67  H    0.132583  -0.000214
    68  H    0.126731   0.006481
    69  H    0.125402  -0.014470
    70  H    0.129733   0.007186
    71  H    0.136969   0.005040
    72  H    0.141308   0.000328
    73  H    0.133249   0.000992
    74  H    0.143393   0.001037
    75  H    0.133893  -0.002117
    76  H    0.116099   0.005442
    77  H    0.141788  -0.000754
    78  H    0.133874  -0.000582
    79  H    0.133607  -0.000005
    80  H    0.134964  -0.014305
    81  H    0.127597   0.004202
    82  H    0.124775   0.000452
    83  H    0.130958  -0.000001
    84  H    0.122810  -0.000163
    85  H    0.350761   0.000422
    86  H    0.115652   0.001554
    87  H    0.120445   0.000036
    88  H    0.119263   0.000029
    89  H    0.119508  -0.000001
    90  H    0.124224   0.004704
    91  H    0.139664   0.000482
    92  H    0.145746   0.001538
    93  H    0.168595  -0.000352
    94  H    0.135503   0.000164
    95  H    0.146352   0.000010
    96  H    0.140229   0.000055
    97  H    0.232299   0.002253
    98  H    0.170299   0.001124
    99  H    0.156124   0.001452
 Sum of Mulliken charges =  -0.00000   4.00000

 Dipole moment (field-independent basis, Debye):
    X=              1.2687    Y=              0.6171    Z=              2.2321  Tot=              2.6406
 Quadrupole moment (field-independent basis, Debye-Ang):
   XX=           -335.2429   YY=           -304.3620   ZZ=           -301.2792
   XY=            -21.2248   XZ=             14.2916   YZ=              8.3008

 Summary of Natural Population Analysis:

                                       Natural Population
                Natural  -----------------------------------------------
    Atom  No    Charge         Core      Valence    Rydberg      Total
 -----------------------------------------------------------------------
      C    1   -0.31911      0.99969     2.31635    0.00306     3.31911
      C    2    0.05359      0.99954     1.93775    0.00912     2.94641
      N    3   -0.23819      0.99968     2.72868    0.00983     3.73819
      C    4   -0.03403      0.99943     2.02500    0.00960     3.03403
      C    5    0.10086      0.99965     1.88828    0.01121     2.89914
      N    6   -0.16096      0.99972     2.63452    0.02672     3.66096
      C    7   -0.30712      0.99972     2.30131    0.00609     3.30712
      C    8   -0.25798      0.99965     2.24923    0.00910     3.25798
      S    9    0.26797      4.99946     2.71286    0.01970     7.73203
      C   10   -0.36375      0.99963     2.35585    0.00827     3.36375
      C   11   -0.07295      0.99948     2.06492    0.00855     3.07295
      C   12   -0.13483      0.99951     2.12749    0.00783     3.13483
      C   13   -0.05045      0.99947     2.04283    0.00815     3.05045
      C   14   -0.14762      0.99948     2.14014    0.00800     3.14762
      C   15    0.07494      0.99951     1.91567    0.00989     2.92506
      C   16    0.02142      0.99942     1.96990    0.00926     2.97858
      C   17   -0.01791      0.99945     2.01053    0.00793     3.01791
      C   18    0.11009      0.99952     1.88022    0.01018     2.88991
      C   19   -0.31707      0.99969     2.31375    0.00362     3.31707
      C   20   -0.21478      0.99967     2.20830    0.00681     3.21478
      C   21   -0.24655      0.99962     2.23846    0.00847     3.24655
      C   22    0.38223      0.99978     1.59974    0.01825     2.61777
      O   23   -0.31157      0.99990     3.29968    0.01199     4.31157
      O   24   -0.32115      0.99981     3.30798    0.01336     4.32115
      C   25    0.10180      0.99950     1.88774    0.01097     2.89820
      C   26   -0.01551      0.99943     2.00752    0.00857     3.01551
      C   27   -0.03197      0.99941     2.02115    0.01141     3.03197
      C   28    0.07450      0.99949     1.91557    0.01044     2.92550
      C   29   -0.31471      0.99970     2.31107    0.00394     3.31471
      C   30   -0.09928      0.99964     2.08977    0.00987     3.09928
      C   31   -0.17577      0.99970     2.17056    0.00551     3.17577
      C   32    0.06713      0.99949     1.92366    0.00972     2.93287
      C   33    0.04649      0.99941     1.94557    0.00853     2.95351
      C   34   -0.07576      0.99940     2.06453    0.01183     3.07576
      C   35    0.14037      0.99951     1.85006    0.01006     2.85963
      C   36   -0.32348      0.99970     2.32027    0.00351     3.32348
      C   37   -0.08244      0.99963     2.07259    0.01022     3.08244
      C   38   -0.19890      0.99971     2.19329    0.00590     3.19890
      C   39    0.12333      0.99950     1.86681    0.01036     2.87667
      C   40   -0.02553      0.99943     2.01773    0.00837     3.02553
      C   41    0.01336      0.99942     1.97793    0.00930     2.98664
      C   42    0.07131      0.99951     1.91872    0.01047     2.92869
      C   43   -0.31915      0.99969     2.31542    0.00403     3.31915
      C   44   -0.20967      0.99965     2.20359    0.00642     3.20967
      C   45   -0.24365      0.99962     2.23554    0.00848     3.24365
      C   46    0.38330      0.99977     1.59822    0.01871     2.61670
      O   47   -0.30471      0.99989     3.29285    0.01197     4.30471
      O   48   -0.33155      0.99980     3.31750    0.01425     4.33155
      N   49   -0.19455      0.99968     2.67726    0.01761     3.69455
      N   50   -0.23480      0.99966     2.70942    0.02572     3.73480
      N   51   -0.18729      0.99967     2.67073    0.01688     3.68729
      N   52   -0.24019      0.99969     2.71459    0.02591     3.74019
     Fe   53    1.65398      8.99507     2.32141    0.02953    11.34602
      H   54    0.25684      0.00000     0.24164    0.00153     0.24316
      H   55    0.11915      0.00000     0.38015    0.00070     0.38085
      H   56    0.12025      0.00000     0.37907    0.00068     0.37975
      H   57    0.11469      0.00000     0.38444    0.00087     0.38531
      H   58    0.10711      0.00000     0.39214    0.00074     0.39289
      H   59    0.10845      0.00000     0.39083    0.00073     0.39155
      H   60    0.11101      0.00000     0.38818    0.00080     0.38899
      H   61    0.10926      0.00000     0.38998    0.00076     0.39074
      H   62    0.10659      0.00000     0.39198    0.00143     0.39341
      H   63    0.10631      0.00000     0.39310    0.00060     0.39369
      H   64    0.10864      0.00000     0.39053    0.00083     0.39136
      H   65    0.11102      0.00000     0.38819    0.00079     0.38898
      H   66    0.09615      0.00000     0.40291    0.00094     0.40385
      H   67    0.09896      0.00000     0.40029    0.00075     0.40104
      H   68    0.10599      0.00000     0.39308    0.00093     0.39401
      H   69    0.10714      0.00000     0.39167    0.00119     0.39286
      H   70    0.11165      0.00000     0.38759    0.00076     0.38835
      H   71    0.11196      0.00000     0.38732    0.00072     0.38804
      H   72    0.11227      0.00000     0.38693    0.00080     0.38773
      H   73    0.09907      0.00000     0.40014    0.00078     0.40093
      H   74    0.09883      0.00000     0.40026    0.00091     0.40117
      H   75    0.10537      0.00000     0.39366    0.00097     0.39463
      H   76    0.11276      0.00000     0.38597    0.00127     0.38724
      H   77    0.10972      0.00000     0.38942    0.00086     0.39028
      H   78    0.11084      0.00000     0.38850    0.00067     0.38916
      H   79    0.10908      0.00000     0.39013    0.00079     0.39092
      H   80    0.10303      0.00000     0.39583    0.00114     0.39697
      H   81    0.11327      0.00000     0.38560    0.00113     0.38673
      H   82    0.10627      0.00000     0.39260    0.00113     0.39373
      H   83    0.11892      0.00000     0.38042    0.00067     0.38108
      H   84    0.11053      0.00000     0.38871    0.00075     0.38947
      H   85    0.25677      0.00000     0.24178    0.00146     0.24323
      H   86    0.11496      0.00000     0.38399    0.00106     0.38504
      H   87    0.10697      0.00000     0.39242    0.00061     0.39303
      H   88    0.10621      0.00000     0.39321    0.00058     0.39379
      H   89    0.10415      0.00000     0.39484    0.00100     0.39585
      H   90    0.10801      0.00000     0.39115    0.00084     0.39199
      H   91    0.10817      0.00000     0.39092    0.00091     0.39183
      H   92    0.10883      0.00000     0.39050    0.00067     0.39117
      H   93    0.12426      0.00000     0.37523    0.00051     0.37574
      H   94    0.10979      0.00000     0.38950    0.00071     0.39021
      H   95    0.11796      0.00000     0.38158    0.00046     0.38204
      H   96    0.11006      0.00000     0.38922    0.00072     0.38994
      H   97    0.20773      0.00000     0.29149    0.00077     0.29227
      H   98    0.11447      0.00000     0.38472    0.00080     0.38553
      H   99    0.11881      0.00000     0.38034    0.00084     0.38119
 =======================================================================
   * Total *    2.00000     64.97427   136.40268    0.62306   202.00000

 Normal termination of Gaussian 16 at Sun Mar  5 15:42:53 2023.
