 Gaussian 16, Revision A.03,
 Gaussian 16:  ES64L-G16RevA.03 25-Dec-2016

 ----------------------------------------------------------------------
 # PBE1PBE/def2TZVP scf=maxcycle=999 empiricaldispersion=GD3BJ int=(gri
 d=ultrafine) geom=check pop=nbo
 ----------------------------------------------------------------------

 ----------
 1c75_III_H
 ----------
 Structure from the checkpoint file:  "1c75_III_H.chk"
 Charge =  1 Multiplicity = 6

                         Standard orientation:
 ---------------------------------------------------------------------
 Center     Atomic      Atomic             Coordinates (Angstroms)
 Number     Number       Type             X           Y           Z
 ---------------------------------------------------------------------
      1          6           0        1.988514   -1.363995    5.135746
      2          6           0        1.309179   -0.922373    3.865371
      3          7           0        0.005782   -0.568227    3.838112
      4          6           0        1.756051   -0.761386    2.597404
      5          6           0       -0.335952   -0.240447    2.579235
      6          7           0        0.715961   -0.357934    1.803267
      7          1           0        2.974308   -1.713563    4.910108
      8          1           0        1.424313   -2.153895    5.585897
      9          1           0       -0.520717   -0.553825    4.517525
     10          1           0        2.629440   -0.902522    2.311305
     11          1           0       -1.182287    0.027172    2.302040
     12          6           0       -0.538977    2.854895   -2.850819
     13          6           0        0.743999    2.067983   -2.842584
     14         16           0        0.458144    0.324775   -2.459223
     15          6           0        1.848568   -0.410796   -3.328956
     16          1           0       -1.064358    2.690103   -1.933367
     17          1           0       -1.146958    2.537239   -3.672009
     18          1           0        1.168996    2.138248   -3.712570
     19          1           0        1.348256    2.445957   -2.184379
     20          1           0        2.669339   -0.059296   -2.975229
     21          1           0        1.831523   -1.362638   -3.211651
     22          1           0        1.788207   -0.201679   -4.263043
     23         26           0        0.669718   -0.018140   -0.161772
     24          6           0       -2.713399    0.144189   -0.277583
     25          6           0        0.540270   -3.380201   -0.671840
     26          6           0        4.084786   -0.133004   -0.236559
     27          6           0        0.848416    3.274303    0.657452
     28          7           0       -0.793312   -1.353772   -0.406581
     29          6           0       -2.146093   -1.114995   -0.454265
     30          6           0       -2.877517   -2.326387   -0.707635
     31          6           0       -1.965045   -3.330188   -0.760886
     32          6           0       -0.662602   -2.706960   -0.602356
     33          6           0       -2.183812   -4.793995   -0.952621
     34          6           0       -4.383827   -2.430037   -0.842890
     35          6           0       -5.159995   -2.131048    0.464821
     36          6           0       -4.818812   -2.940621    1.566014
     37          8           0       -4.588492   -4.162346    1.479615
     38          8           0       -4.691361   -2.323502    2.693573
     39          7           0        2.017936   -1.437479   -0.420487
     40          6           0        1.792795   -2.780983   -0.610582
     41          6           0        3.031816   -3.515482   -0.719231
     42          6           0        4.030271   -2.598608   -0.670152
     43          6           0        3.394405   -1.312418   -0.460420
     44          6           0        3.106396   -5.011587   -0.829910
     45          6           0        5.512963   -2.809285   -0.750856
     46          6           0        5.963607   -3.434159   -2.094961
     47          7           0        2.134629    1.300368    0.087860
     48          6           0        3.515668    1.070398    0.034713
     49          6           0        4.253078    2.255905    0.402831
     50          6           0        3.337668    3.200449    0.636623
     51          6           0        2.044600    2.611853    0.463037
     52          6           0        5.752708    2.311827    0.538780
     53          6           0        3.581766    4.590419    1.206500
     54          6           0        4.556243    5.404143    0.303384
     55          7           0       -0.660504    1.405443    0.129868
     56          6           0       -0.414291    2.714701    0.492022
     57          6           0       -1.646426    3.470204    0.624448
     58          6           0       -2.638221    2.587186    0.381157
     59          6           0       -2.009382    1.306271    0.048605
     60          6           0       -1.675237    4.925308    0.949865
     61          6           0       -4.126032    2.770340    0.328014
     62          6           0       -4.671151    2.796799   -1.161554
     63          6           0       -5.927392    2.177946   -1.276138
     64          8           0       -6.970381    2.892634   -1.403835
     65          8           0       -6.043991    0.927046   -1.176534
     66          1           0       -3.634535    0.218387   -0.386269
     67          1           0        0.511051   -4.303943   -0.766807
     68          1           0        5.013438   -0.166782   -0.275899
     69          1           0        0.891097    4.165906    0.918343
     70          1           0       -1.806272   -5.067098   -1.792366
     71          1           0       -1.759647   -5.276653   -0.239186
     72          1           0       -3.125639   -4.980108   -0.949012
     73          1           0       -4.609610   -3.325019   -1.140544
     74          1           0       -4.677892   -1.810106   -1.527780
     75          1           0       -5.008874   -1.204011    0.706366
     76          1           0       -6.108951   -2.235470    0.288526
     77          1           0       -4.576304   -2.870971    3.294210
     78          1           0        2.643552   -5.298239   -1.620463
     79          1           0        4.025894   -5.282644   -0.882036
     80          1           0        2.698208   -5.409909   -0.057960
     81          1           0        6.001492   -1.865054   -0.629750
     82          1           0        7.032465   -3.465567   -2.133100
     83          1           0        5.574521   -4.427722   -2.174606
     84          1           0        6.075426    1.475953    0.880472
     85          1           0        6.145827    2.479036   -0.321269
     86          1           0        5.993444    3.018033    1.142312
     87          1           0        2.649163    5.110599    1.274060
     88          1           0        5.464198    4.853535    0.171674
     89          1           0        4.772871    6.343324    0.768048
     90          1           0       -1.342105    5.061456    1.838891
     91          1           0       -1.124704    5.404267    0.325702
     92          1           0       -2.577784    5.247892    0.893025
     93          1           0       -4.553701    2.045972    0.810938
     94          1           0       -4.360564    3.601364    0.768919
     95          1           0       -4.739779    3.716793   -1.459659
     96          1           0       -4.038232    2.343435   -1.740735
     97          1           0       -7.542430    3.046284   -0.648353
     98          1           0        4.004329    4.499025    2.185268
     99          1           0        4.100909    5.574418   -0.649809
    100          1           0        5.812149   -3.456753    0.046748
    101          1           0        5.595075   -2.840761   -2.905493
    102          1           0        2.049333   -0.538135    5.813356
    103          1           0       -0.317703    3.896774   -2.952935
 ---------------------------------------------------------------------

 SCF Done:  E(UPBE1PBE) =  -3881.26772647     A.U. after   27 cycles

 Alpha virt. eigenvalues --    0.98148   0.98402   0.98527   0.98716   0.99026
 Alpha virt. eigenvalues --    0.99130   0.99668   0.99997   1.00558   1.00770
 Alpha virt. eigenvalues --    1.00910   1.01297   1.01476   1.01730   1.02030

  Beta  occ. eigenvalues -- -256.53018 -89.12064 -30.26325 -26.09537 -26.09473
  Beta  occ. eigenvalues --  -26.09466 -19.32244 -19.32063 -19.25846 -19.24880
  Beta  occ. eigenvalues --  -14.53407 -14.49219 -14.47344 -14.46904 -14.46737
  Beta  occ. eigenvalues --  -14.46424 -10.42621 -10.41662 -10.37326 -10.35978
  Beta  occ. eigenvalues --  -10.35119 -10.35034 -10.34785 -10.34569 -10.34531
  Beta  occ. eigenvalues --  -10.34481 -10.34443 -10.34287 -10.32483 -10.32359
  Beta  occ. eigenvalues --  -10.32051 -10.31777 -10.31573 -10.31476 -10.31464
  Beta  occ. eigenvalues --  -10.31176 -10.31095 -10.31044 -10.30893 -10.30566
  Beta  occ. eigenvalues --  -10.30517 -10.30379 -10.30123 -10.29965 -10.29905
  Beta  occ. eigenvalues --  -10.29893 -10.29315 -10.28838 -10.28826 -10.28217
  Beta  occ. eigenvalues --  -10.28158 -10.28030 -10.27435 -10.26797 -10.26259
  Beta  occ. eigenvalues --  -10.25923 -10.24600  -8.10117  -6.03751  -6.03442
  Beta  occ. eigenvalues --   -6.02897  -3.55716  -2.30314  -2.30036  -2.29970
  Beta  occ. eigenvalues --   -1.25806  -1.23040  -1.17638  -1.10215  -1.09859
  Beta  occ. eigenvalues --   -1.08619  -1.07521  -1.07024  -1.06137  -1.03344
  Beta  occ. eigenvalues --   -0.94869  -0.94554  -0.94179  -0.93247  -0.92614
  Beta  occ. eigenvalues --   -0.92293  -0.92141  -0.91544  -0.91360  -0.90162
  Beta  occ. eigenvalues --   -0.89413  -0.88078  -0.87384  -0.86556  -0.86338
  Beta  occ. eigenvalues --   -0.85143  -0.83965  -0.83118  -0.82761  -0.82246
  Beta  occ. eigenvalues --   -0.80762  -0.79930  -0.79699  -0.78290  -0.78061
  Beta  occ. eigenvalues --   -0.76199  -0.75980  -0.74514  -0.74346  -0.73592
  Beta  occ. eigenvalues --   -0.72913  -0.72778  -0.72082  -0.69887  -0.69161
  Beta  occ. eigenvalues --   -0.68492  -0.66630  -0.65632  -0.65389  -0.64313
  Beta  occ. eigenvalues --   -0.63315  -0.62703  -0.62506  -0.61703  -0.60544
  Beta  occ. eigenvalues --   -0.59879  -0.59793  -0.59456  -0.59435  -0.58773
  Beta  occ. eigenvalues --   -0.58472  -0.58328  -0.58069  -0.57739  -0.57564
  Beta  occ. eigenvalues --   -0.57411  -0.57101  -0.56529  -0.56203  -0.55909
  Beta  occ. eigenvalues --   -0.55780  -0.55594  -0.55311  -0.55119  -0.54881
  Beta  occ. eigenvalues --   -0.54507  -0.54450  -0.53965  -0.53611  -0.53382
  Beta  occ. eigenvalues --   -0.53184  -0.52772  -0.52585  -0.52485  -0.52217
  Beta  occ. eigenvalues --   -0.51735  -0.51396  -0.51299  -0.51185  -0.51078
  Beta  occ. eigenvalues --   -0.50887  -0.50576  -0.50537  -0.50111  -0.49852
  Beta  occ. eigenvalues --   -0.49754  -0.49683  -0.49210  -0.49126  -0.48905
  Beta  occ. eigenvalues --   -0.48208  -0.47887  -0.47738  -0.47510  -0.47283
  Beta  occ. eigenvalues --   -0.46827  -0.46258  -0.46140  -0.46005  -0.45815
  Beta  occ. eigenvalues --   -0.45595  -0.45352  -0.45060  -0.44624  -0.44230
  Beta  occ. eigenvalues --   -0.43780  -0.43469  -0.43136  -0.42880  -0.42632
  Beta  occ. eigenvalues --   -0.42586  -0.42485  -0.41520  -0.40906  -0.40671
  Beta  occ. eigenvalues --   -0.39824  -0.37966  -0.37931  -0.36913  -0.35820
  Beta  occ. eigenvalues --   -0.35415  -0.35396  -0.34639  -0.33807  -0.33520
  Beta  occ. eigenvalues --   -0.32971  -0.29206  -0.28583
  Beta virt. eigenvalues --   -0.19723  -0.19481  -0.17375  -0.15386  -0.15128
  Beta virt. eigenvalues --   -0.10888  -0.10769  -0.09505  -0.08746  -0.08120
  Beta virt. eigenvalues --   -0.06263  -0.05986  -0.05911  -0.04802  -0.04609

 Mulliken charges and spin densities:
               1          2
     1  C   -0.367313   0.001036
     2  C    0.207592   0.006436
     3  N   -0.162604   0.004135
     4  C   -0.256204   0.001657
     5  C    0.014770   0.010468
     6  N    0.084482   0.052001
     7  H    0.150495   0.000015
     8  H    0.149762   0.000251
     9  H    0.169580   0.000874
    10  H    0.152745   0.000615
    11  H    0.197239   0.000195
    12  C   -0.327660  -0.001621
    13  C   -0.184732   0.001918
    14  S    0.019791   0.112108
    15  C   -0.372266   0.001897
    16  H    0.112615   0.000372
    17  H    0.131517   0.000694
    18  H    0.146961   0.001837
    19  H    0.138002   0.002189
    20  H    0.152591   0.001253
    21  H    0.156804  -0.000264
    22  H    0.179463   0.002219
    23  Fe  -0.323177   4.360401
    24  C   -0.435136  -0.028136
    25  C   -0.530227  -0.023062
    26  C   -0.574297  -0.019855
    27  C   -0.548295  -0.025020
    28  N    0.005409   0.042444
    29  C    0.247941   0.026697
    30  C   -0.199197   0.019272
    31  C   -0.042520   0.018490
    32  C    0.242813   0.022774
    33  C   -0.336401   0.000070
    34  C   -0.174790  -0.000335
    35  C   -0.147880   0.000860
    36  C    0.279971  -0.000004
    37  O   -0.380062  -0.000018
    38  O   -0.277599   0.000035
    39  N    0.001231   0.050424
    40  C    0.237993   0.023841
    41  C   -0.086150   0.021252
    42  C   -0.012646   0.022552
    43  C    0.298946   0.021074
    44  C   -0.331100  -0.000329
    45  C   -0.254277  -0.000314
    46  C   -0.350814   0.000867
    47  N   -0.003075   0.043392
    48  C    0.286376   0.017673
    49  C   -0.094850   0.020031
    50  C   -0.066015   0.016741
    51  C    0.319501   0.028265
    52  C   -0.391255   0.000123
    53  C   -0.217988   0.000027
    54  C   -0.362213   0.000544
    55  N   -0.019584   0.042078
    56  C    0.274172   0.021748
    57  C   -0.124049   0.016120
    58  C    0.045581   0.019379
    59  C    0.112171   0.029276
    60  C   -0.347099  -0.000073
    61  C   -0.314034  -0.000556
    62  C   -0.160683   0.000686
    63  C    0.280706   0.000018
    64  O   -0.367026   0.000001
    65  O   -0.363977   0.000141
    66  H    0.251175   0.000048
    67  H    0.167812   0.000269
    68  H    0.127524   0.000421
    69  H    0.141825   0.000324
    70  H    0.147875   0.000542
    71  H    0.134439   0.000436
    72  H    0.151881   0.000268
    73  H    0.135485   0.000320
    74  H    0.141893   0.000355
    75  H    0.108179  -0.000050
    76  H    0.140173   0.000039
    77  H    0.257685   0.000005
    78  H    0.148637   0.000586
    79  H    0.137666   0.000284
    80  H    0.150772   0.000580
    81  H    0.107401   0.000012
    82  H    0.138983   0.000264
    83  H    0.122490  -0.000046
    84  H    0.141084   0.000191
    85  H    0.166974   0.000609
    86  H    0.155106   0.000349
    87  H    0.107844   0.000009
    88  H    0.127869  -0.000029
    89  H    0.136774   0.000215
    90  H    0.150507   0.000483
    91  H    0.149029   0.000334
    92  H    0.138946   0.000279
    93  H    0.159666   0.000301
    94  H    0.146111   0.000338
    95  H    0.127685  -0.000004
    96  H    0.150046   0.000046
    97  H    0.358833   0.000016
    98  H    0.127003   0.000756
    99  H    0.123951   0.000040
   100  H    0.128883   0.000831
   101  H    0.121049   0.000052
   102  H    0.153942   0.000219
   103  H    0.126776   0.000425
 Sum of Mulliken charges =   1.00000   5.00000

 Dipole moment (field-independent basis, Debye):
    X=              3.6623    Y=              4.1748    Z=              4.7737  Tot=              7.3232
 Quadrupole moment (field-independent basis, Debye-Ang):
   XX=           -243.7912   YY=           -264.8125   ZZ=           -269.4680
   XY=            -28.9029   XZ=            -12.8863   YZ=              2.6008

 Summary of Natural Population Analysis:

                                       Natural Population
                Natural  -----------------------------------------------
    Atom  No    Charge         Core      Valence    Rydberg      Total
 -----------------------------------------------------------------------
      C    1   -0.32134      0.99970     2.31832    0.00332     3.32134
      C    2    0.07332      0.99960     1.91833    0.00876     2.92668
      N    3   -0.20997      0.99970     2.70149    0.00879     3.70997
      C    4   -0.02281      0.99943     2.01449    0.00888     3.02281
      C    5    0.12245      0.99958     1.86856    0.00941     2.87755
      N    6   -0.14273      0.99971     2.62015    0.02288     3.64273
      H    7    0.11999      0.00000     0.37953    0.00048     0.38001
      H    8    0.11467      0.00000     0.38462    0.00071     0.38533
      H    9    0.19197      0.00000     0.30719    0.00083     0.30803
      H   10    0.09995      0.00000     0.39923    0.00083     0.40005
      H   11    0.09757      0.00000     0.40149    0.00094     0.40243
      C   12   -0.30243      0.99972     2.29691    0.00580     3.30243
      C   13   -0.23811      0.99943     2.23035    0.00833     3.23811
      S   14    0.33972      4.99900     2.63935    0.02194     7.66028
      C   15   -0.33022      0.99939     2.32272    0.00810     3.33022
      H   16    0.10782      0.00000     0.39131    0.00087     0.39218
      H   17    0.10778      0.00000     0.39163    0.00058     0.39222
      H   18    0.10600      0.00000     0.39317    0.00083     0.39400
      H   19    0.10524      0.00000     0.39352    0.00123     0.39476
      H   20    0.10527      0.00000     0.39376    0.00096     0.39473
      H   21    0.11182      0.00000     0.38757    0.00061     0.38818
      H   22    0.10854      0.00000     0.39094    0.00052     0.39146
     Fe   23    2.25357      8.99530     1.70109    0.05004    10.74643
      C   24   -0.11671      0.99944     2.10975    0.00752     3.11671
      C   25   -0.10563      0.99945     2.09869    0.00750     3.10563
      C   26   -0.11476      0.99942     2.10760    0.00774     3.11476
      C   27   -0.11480      0.99948     2.10732    0.00800     3.11480
      N   28   -0.18443      0.99969     2.66312    0.02163     3.68443
      C   29    0.09956      0.99952     1.89108    0.00984     2.90044
      C   30    0.00014      0.99941     1.99160    0.00885     2.99986
      C   31    0.02394      0.99945     1.96877    0.00784     2.97606
      C   32    0.09684      0.99953     1.89371    0.00991     2.90316
      C   33   -0.30566      0.99957     2.30292    0.00317     3.30566
      C   34   -0.19099      0.99948     2.18537    0.00614     3.19099
      C   35   -0.24811      0.99942     2.24060    0.00809     3.24811
      C   36    0.38180      0.99965     1.60145    0.01710     2.61820
      O   37   -0.30632      0.99989     3.29411    0.01231     4.30632
      O   38   -0.30687      0.99984     3.29204    0.01499     4.30687
      N   39   -0.18830      0.99969     2.66714    0.02147     3.68830
      C   40    0.09615      0.99953     1.89444    0.00988     2.90385
      C   41    0.00894      0.99943     1.98362    0.00800     2.99106
      C   42    0.00862      0.99928     1.98008    0.01201     2.99138
      C   43    0.09469      0.99953     1.89538    0.01040     2.90531
      C   44   -0.30510      0.99957     2.30229    0.00324     3.30510
      C   45   -0.21483      0.99968     2.20871    0.00643     3.21483
      C   46   -0.29526      0.99972     2.29216    0.00338     3.29526
      N   47   -0.18319      0.99970     2.66242    0.02107     3.68319
      C   48    0.09238      0.99950     1.89813    0.00998     2.90762
      C   49    0.01095      0.99937     1.98168    0.00799     2.98905
      C   50   -0.00226      0.99938     1.99318    0.00970     3.00226
      C   51    0.09855      0.99951     1.89165    0.01029     2.90145
      C   52   -0.30419      0.99956     2.30128    0.00334     3.30419
      C   53   -0.20961      0.99969     2.20342    0.00650     3.20961
      C   54   -0.29635      0.99972     2.29383    0.00279     3.29635
      N   55   -0.19788      0.99968     2.67722    0.02098     3.69788
      C   56    0.09538      0.99953     1.89492    0.01017     2.90462
      C   57    0.01129      0.99937     1.98128    0.00806     2.98871
      C   58   -0.00461      0.99943     1.99678    0.00840     3.00461
      C   59    0.09485      0.99954     1.89555    0.01005     2.90515
      C   60   -0.30553      0.99957     2.30279    0.00317     3.30553
      C   61   -0.19033      0.99946     2.18487    0.00600     3.19033
      C   62   -0.24942      0.99940     2.24196    0.00806     3.24942
      C   63    0.38681      0.99964     1.59661    0.01694     2.61319
      O   64   -0.34365      0.99981     3.32970    0.01414     4.34365
      O   65   -0.29736      0.99989     3.28629    0.01118     4.29736
      H   66    0.10635      0.00000     0.39244    0.00121     0.39365
      H   67    0.09982      0.00000     0.39903    0.00115     0.40018
      H   68    0.09924      0.00000     0.39925    0.00150     0.40076
      H   69    0.09795      0.00000     0.40030    0.00174     0.40205
      H   70    0.10700      0.00000     0.39231    0.00069     0.39300
      H   71    0.10912      0.00000     0.39022    0.00067     0.39088
      H   72    0.11342      0.00000     0.38591    0.00067     0.38658
      H   73    0.10962      0.00000     0.38976    0.00062     0.39038
      H   74    0.11227      0.00000     0.38715    0.00058     0.38773
      H   75    0.10934      0.00000     0.38987    0.00079     0.39066
      H   76    0.12392      0.00000     0.37563    0.00045     0.37608
      H   77    0.23374      0.00000     0.26487    0.00139     0.26626
      H   78    0.10891      0.00000     0.39043    0.00066     0.39109
      H   79    0.10729      0.00000     0.39205    0.00066     0.39271
      H   80    0.10866      0.00000     0.39067    0.00067     0.39134
      H   81    0.10464      0.00000     0.39468    0.00068     0.39536
      H   82    0.10890      0.00000     0.39050    0.00060     0.39110
      H   83    0.10250      0.00000     0.39679    0.00071     0.39750
      H   84    0.10568      0.00000     0.39367    0.00065     0.39432
      H   85    0.10994      0.00000     0.38937    0.00069     0.39006
      H   86    0.10799      0.00000     0.39133    0.00068     0.39201
      H   87    0.10472      0.00000     0.39470    0.00057     0.39528
      H   88    0.10197      0.00000     0.39736    0.00067     0.39803
      H   89    0.10810      0.00000     0.39131    0.00058     0.39190
      H   90    0.10950      0.00000     0.38981    0.00069     0.39050
      H   91    0.10890      0.00000     0.39042    0.00068     0.39110
      H   92    0.10724      0.00000     0.39213    0.00063     0.39276
      H   93    0.10805      0.00000     0.39108    0.00088     0.39195
      H   94    0.10529      0.00000     0.39414    0.00057     0.39471
      H   95    0.10950      0.00000     0.39001    0.00048     0.39050
      H   96    0.11659      0.00000     0.38258    0.00083     0.38341
      H   97    0.26039      0.00000     0.23855    0.00106     0.23961
      H   98    0.11078      0.00000     0.38839    0.00082     0.38922
      H   99    0.10409      0.00000     0.39526    0.00064     0.39591
      H  100    0.11208      0.00000     0.38715    0.00077     0.38792
      H  101    0.10362      0.00000     0.39566    0.00072     0.39638
      H  102    0.11527      0.00000     0.38400    0.00073     0.38473
      H  103    0.11080      0.00000     0.38864    0.00056     0.38920
 =======================================================================
   * Total *    3.00003     64.97202   137.41868    0.60926   202.99997

 Normal termination of Gaussian 16 at Thu Jan  5 04:57:55 2023.
