 Gaussian 16, Revision A.03,
 Gaussian 16:  AM64L-G16RevA.03 25-Dec-2016

 ----------------------------------------------------------------------
 # PBE1PBE/def2TZVP empiricaldispersion=GD3BJ int=(grid=ultrafine) geom
 =check guess=read pop=nbo
 ----------------------------------------------------------------------

 -------------
 1c75_II_S_nbo
 -------------
 Structure from the checkpoint file:  "1c75_II_S.chk"
 Charge =  0 Multiplicity = 1

                         Standard orientation:
 ---------------------------------------------------------------------
 Center     Atomic      Atomic             Coordinates (Angstroms)
 Number     Number       Type             X           Y           Z
 ---------------------------------------------------------------------
      1          6           0        1.988514   -1.363995    5.135746
      2          6           0        1.309179   -0.922373    3.865371
      3          7           0        0.005782   -0.568227    3.838112
      4          6           0        1.756051   -0.761386    2.597404
      5          6           0       -0.335952   -0.240447    2.579235
      6          7           0        0.715961   -0.357934    1.803267
      7          1           0        2.974308   -1.713563    4.910108
      8          1           0        1.424313   -2.153895    5.585897
      9          1           0       -0.520717   -0.553825    4.517525
     10          1           0        2.629440   -0.902522    2.311305
     11          1           0       -1.182287    0.027172    2.302040
     12          6           0       -0.538977    2.854895   -2.850819
     13          6           0        0.743999    2.067983   -2.842584
     14         16           0        0.458144    0.324775   -2.459223
     15          6           0        1.848568   -0.410796   -3.328956
     16          1           0       -1.064358    2.690103   -1.933367
     17          1           0       -1.146958    2.537239   -3.672009
     18          1           0        1.168996    2.138248   -3.712570
     19          1           0        1.348256    2.445957   -2.184379
     20          1           0        2.669339   -0.059296   -2.975229
     21          1           0        1.831523   -1.362638   -3.211651
     22          1           0        1.788207   -0.201679   -4.263043
     23         26           0        0.669718   -0.018140   -0.161772
     24          6           0       -2.713399    0.144189   -0.277583
     25          6           0        0.540270   -3.380201   -0.671840
     26          6           0        4.084786   -0.133004   -0.236559
     27          6           0        0.848416    3.274303    0.657452
     28          7           0       -0.793312   -1.353772   -0.406581
     29          6           0       -2.146093   -1.114995   -0.454265
     30          6           0       -2.877517   -2.326387   -0.707635
     31          6           0       -1.965045   -3.330188   -0.760886
     32          6           0       -0.662602   -2.706960   -0.602356
     33          6           0       -2.183812   -4.793995   -0.952621
     34          6           0       -4.383827   -2.430037   -0.842890
     35          6           0       -5.159995   -2.131048    0.464821
     36          6           0       -4.818812   -2.940621    1.566014
     37          8           0       -4.588492   -4.162346    1.479615
     38          8           0       -4.691361   -2.323502    2.693573
     39          7           0        2.017936   -1.437479   -0.420487
     40          6           0        1.792795   -2.780983   -0.610582
     41          6           0        3.031816   -3.515482   -0.719231
     42          6           0        4.030271   -2.598608   -0.670152
     43          6           0        3.394405   -1.312418   -0.460420
     44          6           0        3.106396   -5.011587   -0.829910
     45          6           0        5.512963   -2.809285   -0.750856
     46          6           0        5.963607   -3.434159   -2.094961
     47          7           0        2.134629    1.300368    0.087860
     48          6           0        3.515668    1.070398    0.034713
     49          6           0        4.253078    2.255905    0.402831
     50          6           0        3.337668    3.200449    0.636623
     51          6           0        2.044600    2.611853    0.463037
     52          6           0        5.752708    2.311827    0.538780
     53          6           0        3.581766    4.590419    1.206500
     54          6           0        4.556243    5.404143    0.303384
     55          7           0       -0.660504    1.405443    0.129868
     56          6           0       -0.414291    2.714701    0.492022
     57          6           0       -1.646426    3.470204    0.624448
     58          6           0       -2.638221    2.587186    0.381157
     59          6           0       -2.009382    1.306271    0.048605
     60          6           0       -1.675237    4.925308    0.949865
     61          6           0       -4.126032    2.770340    0.328014
     62          6           0       -4.671151    2.796799   -1.161554
     63          6           0       -5.927392    2.177946   -1.276138
     64          8           0       -6.970381    2.892634   -1.403835
     65          8           0       -6.043991    0.927046   -1.176534
     66          1           0       -3.634535    0.218387   -0.386269
     67          1           0        0.511051   -4.303943   -0.766807
     68          1           0        5.013438   -0.166782   -0.275899
     69          1           0        0.891097    4.165906    0.918343
     70          1           0       -1.806272   -5.067098   -1.792366
     71          1           0       -1.759647   -5.276653   -0.239186
     72          1           0       -3.125639   -4.980108   -0.949012
     73          1           0       -4.609610   -3.325019   -1.140544
     74          1           0       -4.677892   -1.810106   -1.527780
     75          1           0       -5.008874   -1.204011    0.706366
     76          1           0       -6.108951   -2.235470    0.288526
     77          1           0       -4.576304   -2.870971    3.294210
     78          1           0        2.643552   -5.298239   -1.620463
     79          1           0        4.025894   -5.282644   -0.882036
     80          1           0        2.698208   -5.409909   -0.057960
     81          1           0        6.001492   -1.865054   -0.629750
     82          1           0        7.032465   -3.465567   -2.133100
     83          1           0        5.574521   -4.427722   -2.174606
     84          1           0        6.075426    1.475953    0.880472
     85          1           0        6.145827    2.479036   -0.321269
     86          1           0        5.993444    3.018033    1.142312
     87          1           0        2.649163    5.110599    1.274060
     88          1           0        5.464198    4.853535    0.171674
     89          1           0        4.772871    6.343324    0.768048
     90          1           0       -1.342105    5.061456    1.838891
     91          1           0       -1.124704    5.404267    0.325702
     92          1           0       -2.577784    5.247892    0.893025
     93          1           0       -4.553701    2.045972    0.810938
     94          1           0       -4.360564    3.601364    0.768919
     95          1           0       -4.739779    3.716793   -1.459659
     96          1           0       -4.038232    2.343435   -1.740735
     97          1           0       -7.542430    3.046284   -0.648353
     98          1           0        4.004329    4.499025    2.185268
     99          1           0        4.100909    5.574418   -0.649809
    100          1           0        5.812149   -3.456753    0.046748
    101          1           0        5.595075   -2.840761   -2.905493
    102          1           0        2.049333   -0.538135    5.813356
    103          1           0       -0.317703    3.896774   -2.952935
 ---------------------------------------------------------------------

 SCF Done:  E(RPBE1PBE) =  -3881.47043470     A.U. after    1 cycles

 The electronic state is 1-A.
 Alpha  occ. eigenvalues -- -256.29887 -89.00898 -30.06907 -25.89710 -25.89357
 Alpha  occ. eigenvalues --  -25.89308 -19.24825 -19.24412 -19.17976 -19.16971
 Alpha  occ. eigenvalues --  -14.42687 -14.38514 -14.36119 -14.35675 -14.35598
 Alpha  occ. eigenvalues --  -14.35285 -10.34725 -10.33676 -10.25811 -10.25484
 Alpha  occ. eigenvalues --  -10.23077 -10.23022 -10.23022 -10.22757 -10.22596
 Alpha  occ. eigenvalues --  -10.22510 -10.22492 -10.22484 -10.22320 -10.21441
 Alpha  occ. eigenvalues --  -10.21387 -10.21301 -10.21298 -10.21212 -10.21081
 Alpha  occ. eigenvalues --  -10.20355 -10.20333 -10.20259 -10.20220 -10.20114
 Alpha  occ. eigenvalues --  -10.20084 -10.20020 -10.19841 -10.19828 -10.19781
 Alpha  occ. eigenvalues --  -10.18913 -10.18857 -10.18848 -10.18799 -10.18646
 Alpha  occ. eigenvalues --  -10.18516 -10.18506 -10.18213 -10.17383 -10.16836
 Alpha  occ. eigenvalues --  -10.16440 -10.15227  -7.98713  -5.92368  -5.92069
 Alpha  occ. eigenvalues --   -5.91543  -3.41346  -2.17331  -2.16686  -2.16571
 Alpha  occ. eigenvalues --   -1.17978  -1.15668  -1.06810  -1.02306  -1.02086
 Alpha  occ. eigenvalues --   -0.96742  -0.95681  -0.95266  -0.94381  -0.92283
 Alpha  occ. eigenvalues --   -0.85068  -0.84144  -0.83700  -0.82838  -0.82195
 Alpha  occ. eigenvalues --   -0.81928  -0.81596  -0.81368  -0.80419  -0.79795
 Alpha  occ. eigenvalues --   -0.79180  -0.77616  -0.77372  -0.76867  -0.75493
 Alpha  occ. eigenvalues --   -0.75018  -0.74435  -0.73245  -0.72644  -0.72052
 Alpha  occ. eigenvalues --   -0.70822  -0.70194  -0.68997  -0.67466  -0.67328
 Alpha  occ. eigenvalues --   -0.66713  -0.65445  -0.65136  -0.64578  -0.63728
 Alpha  occ. eigenvalues --   -0.63251  -0.63130  -0.61206  -0.58422  -0.58009
 Alpha  occ. eigenvalues --   -0.57741  -0.56146  -0.55102  -0.54579  -0.54329
 Alpha  occ. eigenvalues --   -0.53199  -0.52431  -0.51912  -0.51399  -0.51067
 Alpha  occ. eigenvalues --   -0.50774  -0.50086  -0.49531  -0.49400  -0.49119
 Alpha  occ. eigenvalues --   -0.48736  -0.48185  -0.48020  -0.47847  -0.47553
 Alpha  occ. eigenvalues --   -0.47070  -0.46634  -0.46444  -0.46182  -0.46099
 Alpha  occ. eigenvalues --   -0.45844  -0.45491  -0.45314  -0.45180  -0.45140
 Alpha  occ. eigenvalues --   -0.45036  -0.44375  -0.44290  -0.44049  -0.43501
 Alpha  occ. eigenvalues --   -0.43352  -0.43273  -0.43134  -0.42706  -0.42202
 Alpha  occ. eigenvalues --   -0.42095  -0.41968  -0.41608  -0.41553  -0.40988
 Alpha  occ. eigenvalues --   -0.40684  -0.40599  -0.40155  -0.39973  -0.39724
 Alpha  occ. eigenvalues --   -0.39607  -0.39110  -0.39058  -0.38567  -0.38489
 Alpha  occ. eigenvalues --   -0.38241  -0.37852  -0.37595  -0.37223  -0.36910
 Alpha  occ. eigenvalues --   -0.36803  -0.36400  -0.36335  -0.35664  -0.35481
 Alpha  occ. eigenvalues --   -0.35166  -0.34997  -0.34874  -0.34767  -0.34117
 Alpha  occ. eigenvalues --   -0.33481  -0.33155  -0.33062  -0.32780  -0.32023
 Alpha  occ. eigenvalues --   -0.31886  -0.31648  -0.31189  -0.30628  -0.29315
 Alpha  occ. eigenvalues --   -0.28689  -0.27938  -0.27520  -0.26735  -0.26625
 Alpha  occ. eigenvalues --   -0.25371  -0.24937  -0.24012  -0.23148  -0.22714
 Alpha  occ. eigenvalues --   -0.22179  -0.19051  -0.17679  -0.17526  -0.17309
 Alpha  occ. eigenvalues --   -0.17273
 Alpha virt. eigenvalues --   -0.05650  -0.05252  -0.02362   0.00643   0.01834
 Alpha virt. eigenvalues --    0.02443   0.02561   0.03056   0.04139   0.04315
 Alpha virt. eigenvalues --    0.04532   0.05394   0.05746   0.06023   0.06048

 Mulliken charges:
               1
     1  C   -0.383442
     2  C    0.219872
     3  N   -0.183908
     4  C   -0.260662
     5  C    0.002705
     6  N    0.098437
     7  H    0.144996
     8  H    0.134880
     9  H    0.155063
    10  H    0.141830
    11  H    0.185564
    12  C   -0.322491
    13  C   -0.174226
    14  S    0.036355
    15  C   -0.377985
    16  H    0.127338
    17  H    0.108825
    18  H    0.122892
    19  H    0.133466
    20  H    0.146528
    21  H    0.150051
    22  H    0.156745
    23  Fe  -0.535465
    24  C   -0.443409
    25  C   -0.538300
    26  C   -0.579273
    27  C   -0.553550
    28  N    0.033164
    29  C    0.215621
    30  C   -0.210083
    31  C   -0.041046
    32  C    0.220178
    33  C   -0.357872
    34  C   -0.185746
    35  C   -0.141568
    36  C    0.282686
    37  O   -0.389578
    38  O   -0.277028
    39  N    0.051951
    40  C    0.216930
    41  C   -0.095077
    42  C   -0.014548
    43  C    0.269559
    44  C   -0.352558
    45  C   -0.260828
    46  C   -0.347072
    47  N    0.032882
    48  C    0.265533
    49  C   -0.105155
    50  C   -0.063256
    51  C    0.288343
    52  C   -0.413055
    53  C   -0.220695
    54  C   -0.357830
    55  N    0.023089
    56  C    0.253226
    57  C   -0.123773
    58  C    0.034033
    59  C    0.090281
    60  C   -0.372375
    61  C   -0.324081
    62  C   -0.152437
    63  C    0.272002
    64  O   -0.376488
    65  O   -0.364717
    66  H    0.251576
    67  H    0.149700
    68  H    0.111794
    69  H    0.126524
    70  H    0.136393
    71  H    0.125720
    72  H    0.139831
    73  H    0.121476
    74  H    0.134026
    75  H    0.109508
    76  H    0.122215
    77  H    0.250079
    78  H    0.138838
    79  H    0.124406
    80  H    0.140281
    81  H    0.099341
    82  H    0.116857
    83  H    0.113099
    84  H    0.135041
    85  H    0.152697
    86  H    0.141746
    87  H    0.099842
    88  H    0.120147
    89  H    0.115088
    90  H    0.140378
    91  H    0.142042
    92  H    0.125204
    93  H    0.151417
    94  H    0.132498
    95  H    0.112066
    96  H    0.154419
    97  H    0.349652
    98  H    0.109588
    99  H    0.118945
   100  H    0.111088
   101  H    0.119750
   102  H    0.138999
   103  H    0.102280
 Sum of Mulliken charges =  -0.00000

 Dipole moment (field-independent basis, Debye):
    X=              0.6767    Y=              4.1269    Z=              5.0485  Tot=              6.5556
 Quadrupole moment (field-independent basis, Debye-Ang):
   XX=           -302.6034   YY=           -313.1591   ZZ=           -293.0181
   XY=            -27.8072   XZ=            -12.9926   YZ=             -0.2321

 Summary of Natural Population Analysis:

                                       Natural Population
                Natural  -----------------------------------------------
    Atom  No    Charge         Core      Valence    Rydberg      Total
 -----------------------------------------------------------------------
      C    1   -0.64002      1.99940     4.63398    0.00664     6.64002
      C    2    0.11287      1.99921     3.87220    0.01572     5.88713
      N    3   -0.44578      1.99940     5.42730    0.01907     7.44578
      C    4   -0.05176      1.99890     4.03406    0.01880     6.05176
      C    5    0.20868      1.99925     3.77469    0.01738     5.79132
      N    6   -0.28259      1.99939     5.23060    0.05260     7.28259
      H    7    0.23384      0.00000     0.76519    0.00097     0.76616
      H    8    0.21765      0.00000     0.78080    0.00155     0.78235
      H    9    0.37446      0.00000     0.62369    0.00186     0.62554
      H   10    0.19449      0.00000     0.80379    0.00172     0.80551
      H   11    0.19039      0.00000     0.80736    0.00225     0.80961
      C   12   -0.60599      1.99944     4.59906    0.00749     6.60599
      C   13   -0.49138      1.99889     4.47973    0.01277     6.49138
      S   14    0.55671      9.99865     5.40117    0.04347    15.44329
      C   15   -0.67975      1.99881     4.67060    0.01034     6.67975
      H   16    0.22590      0.00000     0.77225    0.00185     0.77410
      H   17    0.20409      0.00000     0.79449    0.00142     0.79591
      H   18    0.19766      0.00000     0.80031    0.00204     0.80234
      H   19    0.20884      0.00000     0.78822    0.00294     0.79116
      H   20    0.20714      0.00000     0.79051    0.00235     0.79286
      H   21    0.22036      0.00000     0.77809    0.00155     0.77964
      H   22    0.19879      0.00000     0.79943    0.00178     0.80121
     Fe   23   -0.13914     17.99003     8.10176    0.04735    26.13914
      C   24   -0.24570      1.99897     4.23019    0.01654     6.24570
      C   25   -0.22479      1.99901     4.21278    0.01300     6.22479
      C   26   -0.24356      1.99894     4.22735    0.01728     6.24356
      C   27   -0.23541      1.99898     4.21892    0.01751     6.23541
      N   28   -0.35582      1.99936     5.30866    0.04780     7.35582
      C   29    0.15667      1.99909     3.82403    0.02021     5.84333
      C   30   -0.04871      1.99883     4.03131    0.01856     6.04871
      C   31    0.00475      1.99890     3.97965    0.01670     5.99525
      C   32    0.15187      1.99911     3.82804    0.02098     5.84813
      C   33   -0.61185      1.99915     4.60616    0.00654     6.61185
      C   34   -0.37702      1.99898     4.36626    0.01178     6.37702
      C   35   -0.50257      1.99886     4.48704    0.01667     6.50257
      C   36    0.76913      1.99930     3.19709    0.03447     5.23087
      O   37   -0.62077      1.99978     6.59642    0.02457     8.62077
      O   38   -0.61503      1.99968     6.58513    0.03022     8.61503
      N   39   -0.36428      1.99936     5.31852    0.04640     7.36428
      C   40    0.15021      1.99911     3.82966    0.02102     5.84979
      C   41   -0.02493      1.99886     4.00954    0.01653     6.02493
      C   42   -0.05022      1.99889     4.03185    0.01948     6.05022
      C   43    0.15260      1.99909     3.82739    0.02091     5.84740
      C   44   -0.61116      1.99915     4.60514    0.00687     6.61116
      C   45   -0.41889      1.99936     4.40595    0.01358     6.41889
      C   46   -0.59265      1.99945     4.58735    0.00585     6.59265
      N   47   -0.35119      1.99938     5.30510    0.04671     7.35119
      C   48    0.14316      1.99904     3.83754    0.02025     5.85684
      C   49   -0.02421      1.99876     4.00840    0.01705     6.02421
      C   50   -0.04887      1.99876     4.02964    0.02047     6.04887
      C   51    0.14935      1.99907     3.83030    0.02129     5.85065
      C   52   -0.60991      1.99915     4.60391    0.00686     6.60991
      C   53   -0.41420      1.99938     4.40121    0.01361     6.41420
      C   54   -0.59532      1.99945     4.59011    0.00576     6.59532
      N   55   -0.37201      1.99934     5.32529    0.04738     7.37201
      C   56    0.14377      1.99911     3.83572    0.02140     5.85623
      C   57   -0.02072      1.99884     4.00542    0.01646     6.02072
      C   58   -0.05391      1.99887     4.03689    0.01815     6.05391
      C   59    0.14292      1.99914     3.83707    0.02087     5.85708
      C   60   -0.61119      1.99916     4.60536    0.00667     6.61119
      C   61   -0.37519      1.99894     4.36366    0.01260     6.37519
      C   62   -0.50598      1.99881     4.49039    0.01678     6.50598
      C   63    0.77220      1.99928     3.19429    0.03423     5.22780
      O   64   -0.69531      1.99962     6.66763    0.02807     8.69531
      O   65   -0.59633      1.99979     6.57411    0.02243     8.59633
      H   66    0.19947      0.00000     0.79827    0.00226     0.80053
      H   67    0.18725      0.00000     0.81025    0.00250     0.81275
      H   68    0.18619      0.00000     0.81125    0.00256     0.81381
      H   69    0.18250      0.00000     0.81375    0.00375     0.81750
      H   70    0.20528      0.00000     0.79314    0.00157     0.79472
      H   71    0.21073      0.00000     0.78776    0.00151     0.78927
      H   72    0.21754      0.00000     0.78111    0.00136     0.78246
      H   73    0.20875      0.00000     0.78920    0.00205     0.79125
      H   74    0.21810      0.00000     0.78069    0.00121     0.78190
      H   75    0.22189      0.00000     0.77646    0.00165     0.77811
      H   76    0.23848      0.00000     0.76058    0.00093     0.76152
      H   77    0.46398      0.00000     0.53302    0.00300     0.53602
      H   78    0.20949      0.00000     0.78896    0.00155     0.79051
      H   79    0.20516      0.00000     0.79338    0.00146     0.79484
      H   80    0.20919      0.00000     0.78923    0.00158     0.79081
      H   81    0.20324      0.00000     0.79513    0.00164     0.79676
      H   82    0.20352      0.00000     0.79515    0.00133     0.79648
      H   83    0.20083      0.00000     0.79775    0.00141     0.79917
      H   84    0.20668      0.00000     0.79186    0.00147     0.79332
      H   85    0.20979      0.00000     0.78864    0.00157     0.79021
      H   86    0.20638      0.00000     0.79210    0.00152     0.79362
      H   87    0.20627      0.00000     0.79250    0.00123     0.79373
      H   88    0.20204      0.00000     0.79653    0.00143     0.79796
      H   89    0.20210      0.00000     0.79654    0.00136     0.79790
      H   90    0.21040      0.00000     0.78800    0.00160     0.78960
      H   91    0.21135      0.00000     0.78708    0.00157     0.78865
      H   92    0.20470      0.00000     0.79391    0.00139     0.79530
      H   93    0.20992      0.00000     0.78810    0.00199     0.79008
      H   94    0.20188      0.00000     0.79692    0.00120     0.79812
      H   95    0.21233      0.00000     0.78669    0.00098     0.78767
      H   96    0.23807      0.00000     0.75974    0.00219     0.76193
      H   97    0.51448      0.00000     0.48322    0.00230     0.48552
      H   98    0.20890      0.00000     0.78920    0.00189     0.79110
      H   99    0.20570      0.00000     0.79289    0.00140     0.79430
      H  100    0.21020      0.00000     0.78797    0.00183     0.78980
      H  101    0.20683      0.00000     0.79169    0.00148     0.79317
      H  102    0.21857      0.00000     0.77986    0.00157     0.78143
      H  103    0.20744      0.00000     0.79121    0.00135     0.79256
 =======================================================================
   * Total *    0.00000    129.94546   280.85553    1.19900   412.00000

 Normal termination of Gaussian 16 at Mon Sep 12 21:53:10 2022.
