 Gaussian 16, Revision A.03,
 Gaussian 16:  ES64L-G16RevA.03 25-Dec-2016

 ---------------------------------------------------------------------
 # polar def2tzvp empiricaldispersion=gd3bj int=grid=ultrafine pbe1pbe
 ---------------------------------------------------------------------

 ---------
 1ccc_II_S
 ---------
 Symbolic Z-matrix:
 Charge =  0 Multiplicity = 1

                         Standard orientation:
 ---------------------------------------------------------------------
 Center     Atomic      Atomic             Coordinates (Angstroms)
 Number     Number       Type             X           Y           Z
 ---------------------------------------------------------------------
      1          6           0       -1.569949   -1.838410    4.961434
      2          6           0       -1.479392   -0.895843    3.750616
      3          7           0       -1.693155    0.411778    3.691563
      4          6           0       -1.162440   -1.249704    2.466652
      5          6           0       -1.491293    0.845786    2.471301
      6          7           0       -1.168366   -0.171647    1.718591
      7          1           0       -2.121131    0.949831    4.376849
      8          6           0        2.363359    0.103689    0.237942
      9          6           0       -0.981740    3.544414   -0.259818
     10          6           0       -4.244496    0.084665   -0.644771
     11          6           0       -0.862945   -3.276823   -0.688878
     12          6           0        1.752141    1.363646    0.148080
     13          6           0        2.454817    2.531999    0.156170
     14          6           0        1.492355    3.551874    0.041755
     15          6           0        0.266693    2.918016   -0.082441
     16          6           0        1.707747    5.070714   -0.013430
     17          6           0        3.977852    2.572143    0.241803
     18          6           0        4.707806    2.821643   -1.051435
     19          6           0        6.232571    2.854570   -0.893225
     20          8           0        6.787480    3.798328   -0.347173
     21          8           0        6.943109    1.961180   -1.326830
     22          6           0       -2.241017    2.906098   -0.311552
     23          6           0       -3.487070    3.554977   -0.319243
     24          6           0       -4.429216    2.525371   -0.361342
     25          6           0       -3.690649    1.344435   -0.428095
     26          6           0       -3.679044    5.054793   -0.175876
     27          6           0       -5.832646    2.508679   -0.349091
     28          6           0       -6.747712    3.599106   -0.257492
     29          6           0       -3.640666   -1.168920   -0.768240
     30          6           0       -4.318680   -2.334301   -1.125064
     31          6           0       -3.295330   -3.284463   -1.259688
     32          6           0       -2.107901   -2.663283   -0.841590
     33          6           0       -5.839420   -2.461272   -1.364908
     34          6           0       -3.358381   -4.630509   -1.627580
     35          6           0       -4.512237   -5.519088   -1.568492
     36          6           0        0.351357   -2.680930   -0.354800
     37          6           0        1.495817   -3.361923    0.022047
     38          6           0        2.433591   -2.378155    0.304765
     39          6           0        1.791134   -1.161598    0.078546
     40          6           0        1.721205   -4.853869    0.110569
     41          6           0        3.894296   -2.597839    0.721528
     42          6           0        4.848486   -2.684053   -0.476101
     43          6           0        6.322185   -2.738898   -0.113061
     44          8           0        7.159932   -2.240473   -0.839094
     45          8           0        6.646332   -3.290452    0.924737
     46          7           0        0.432203    1.593744    0.002826
     47          7           0       -2.395877    1.581569   -0.285487
     48          7           0       -2.322517   -1.381173   -0.565956
     49          7           0        0.533194   -1.359426   -0.297990
     50         26           0       -0.955432    0.100357   -0.255377
     51          8           0       -0.710817    0.414192   -2.071370
     52          1           0       -0.939628   -2.687861    4.800098
     53          1           0       -1.251465   -1.319985    5.841606
     54          1           0       -2.581790   -2.163516    5.085460
     55          1           0       -0.945674   -2.241587    2.128896
     56          1           0       -1.576626    1.861783    2.146695
     57          1           0        1.529701    5.420262   -1.008928
     58          1           0        1.029689    5.551814    0.660129
     59          1           0        2.713992    5.298783    0.270042
     60          1           0        4.251353    3.343162    0.931460
     61          1           0        4.312919    1.635882    0.636830
     62          1           0        4.452073    2.047049   -1.743898
     63          1           0        4.384735    3.760007   -1.451432
     64          1           0        7.582380    4.175424   -0.731274
     65          1           0        3.410323    0.112777    0.458589
     66          1           0       -0.994066   -0.188352   -2.762970
     67          1           0       -0.296596    1.184219   -2.467702
     68          1           0        3.959897   -3.507907    1.280430
     69          1           0        4.199766   -1.785638    1.347560
     70          1           0        4.606620   -3.562382   -1.037295
     71          1           0        4.686239   -1.829053   -1.098637
     72          1           0        7.405716   -2.676398   -1.658337
     73          1           0        2.383060   -5.161637   -0.671816
     74          1           0        2.154480   -5.093467    1.059129
     75          1           0        0.785633   -5.362681    0.007060
     76          1           0       -0.838466   -4.334645   -0.847974
     77          1           0       -6.044495   -3.378566   -1.876197
     78          1           0       -6.350507   -2.454929   -0.424881
     79          1           0       -6.176616   -1.638271   -1.959775
     80          1           0       -4.656793   -6.259408   -2.327392
     81          1           0       -5.214736   -5.431083   -0.766214
     82          1           0       -2.451020   -5.060786   -1.996982
     83          1           0       -5.310973    0.075810   -0.731068
     84          1           0       -7.546102    3.688347   -0.964252
     85          1           0       -6.635719    4.327813    0.517972
     86          1           0       -6.280189    1.539244   -0.418379
     87          1           0       -4.097633    5.448676   -1.078394
     88          1           0       -4.341387    5.253143    0.640738
     89          1           0       -2.733355    5.519163    0.011030
     90          1           0       -0.976188    4.609126   -0.365920
 ---------------------------------------------------------------------

 SCF Done:  E(RPBE1PBE) =  -3438.59819833     A.U. after   25 cycles

 The electronic state is 1-A.
 Alpha  occ. eigenvalues -- -256.30140 -30.06886 -25.89649 -25.89460 -25.89274
 Alpha  occ. eigenvalues --  -19.25641 -19.24493 -19.24338 -19.16938 -19.16663
 Alpha  occ. eigenvalues --  -14.44628 -14.38456 -14.36293 -14.36054 -14.35615
 Alpha  occ. eigenvalues --  -14.35159 -10.34427 -10.33554 -10.26918 -10.25704
 Alpha  occ. eigenvalues --  -10.24134 -10.23688 -10.23632 -10.23621 -10.23522
 Alpha  occ. eigenvalues --  -10.23269 -10.23162 -10.23130 -10.23110 -10.23062
 Alpha  occ. eigenvalues --  -10.23060 -10.23006 -10.22680 -10.22634 -10.22611
 Alpha  occ. eigenvalues --  -10.22428 -10.22316 -10.22100 -10.22039 -10.21808
 Alpha  occ. eigenvalues --  -10.21738 -10.21699 -10.21612 -10.21577 -10.21486
 Alpha  occ. eigenvalues --  -10.21460 -10.21388 -10.21384 -10.21342 -10.21187
 Alpha  occ. eigenvalues --  -10.21097 -10.21073 -10.21012 -10.20854  -3.41745
 Alpha  occ. eigenvalues --   -2.17789  -2.17220  -2.16889  -1.18436  -1.17557
 Alpha  occ. eigenvalues --   -1.08722  -1.08172  -1.02963  -1.02807  -0.99757
 Alpha  occ. eigenvalues --   -0.98993  -0.98664  -0.97997  -0.92866  -0.84285
 Alpha  occ. eigenvalues --   -0.83324  -0.82652  -0.82550  -0.82108  -0.81170
 Alpha  occ. eigenvalues --   -0.80973  -0.80953  -0.79115  -0.78483  -0.76902
 Alpha  occ. eigenvalues --   -0.75448  -0.74975  -0.73795  -0.72820  -0.72454
 Alpha  occ. eigenvalues --   -0.71721  -0.71171  -0.70117  -0.69729  -0.69348
 Alpha  occ. eigenvalues --   -0.66647  -0.66493  -0.66166  -0.65435  -0.65071
 Alpha  occ. eigenvalues --   -0.62913  -0.62632  -0.61727  -0.59611  -0.58815
 Alpha  occ. eigenvalues --   -0.58306  -0.57028  -0.56387  -0.55136  -0.54423
 Alpha  occ. eigenvalues --   -0.53541  -0.52644  -0.52421  -0.52390  -0.52042
 Alpha  occ. eigenvalues --   -0.51620  -0.50912  -0.50619  -0.50061  -0.49544
 Alpha  occ. eigenvalues --   -0.49294  -0.49177  -0.48360  -0.48174  -0.47883
 Alpha  occ. eigenvalues --   -0.47160  -0.46367  -0.45980  -0.45547  -0.45223
 Alpha  occ. eigenvalues --   -0.44888  -0.44604  -0.44342  -0.44285  -0.43884
 Alpha  occ. eigenvalues --   -0.43808  -0.43630  -0.43476  -0.43054  -0.42916
 Alpha  occ. eigenvalues --   -0.42703  -0.42444  -0.42361  -0.42034  -0.41710
 Alpha  occ. eigenvalues --   -0.41624  -0.41214  -0.41133  -0.40698  -0.40472
 Alpha  occ. eigenvalues --   -0.40227  -0.39753  -0.39196  -0.38791  -0.38636
 Alpha  occ. eigenvalues --   -0.38468  -0.38284  -0.38156  -0.37616  -0.37423
 Alpha  occ. eigenvalues --   -0.37208  -0.36524  -0.36474  -0.36130  -0.35968
 Alpha  occ. eigenvalues --   -0.35407  -0.35239  -0.35059  -0.33882  -0.33250
 Alpha  occ. eigenvalues --   -0.32897  -0.32685  -0.32500  -0.32301  -0.31058
 Alpha  occ. eigenvalues --   -0.30117  -0.29455  -0.29313  -0.28683  -0.27397
 Alpha  occ. eigenvalues --   -0.27142  -0.26987  -0.26839  -0.24379  -0.23458
 Alpha  occ. eigenvalues --   -0.23218  -0.21714  -0.20451  -0.19832  -0.18895
 Alpha  occ. eigenvalues --   -0.18519  -0.18336  -0.17778
 Alpha virt. eigenvalues --   -0.08193  -0.07934  -0.04765  -0.02504  -0.00185
 Alpha virt. eigenvalues --    0.00024   0.00551   0.00650   0.02654   0.03188
 Alpha virt. eigenvalues --    0.03736   0.04109   0.04542   0.04773   0.04992

 Mulliken charges:
               1
     1  C   -0.374748
     2  C    0.148593
     3  N   -0.206321
     4  C   -0.212980
     5  C    0.014583
     6  N    0.046986
     7  H    0.221277
     8  C   -0.465026
     9  C   -0.504198
    10  C   -0.443845
    11  C   -0.510347
    12  C    0.336530
    13  C    0.040167
    14  C   -0.061220
    15  C    0.203401
    16  C   -0.409025
    17  C   -0.468729
    18  C   -0.090888
    19  C    0.225640
    20  O   -0.321828
    21  O   -0.354429
    22  C    0.285055
    23  C   -0.129024
    24  C   -0.013470
    25  C    0.265889
    26  C   -0.365707
    27  C   -0.090702
    28  C   -0.359154
    29  C    0.259473
    30  C   -0.111629
    31  C    0.028897
    32  C    0.262083
    33  C   -0.400991
    34  C   -0.167347
    35  C   -0.354294
    36  C    0.269096
    37  C   -0.093377
    38  C    0.009297
    39  C    0.235087
    40  C   -0.391902
    41  C   -0.297121
    42  C   -0.260714
    43  C    0.271745
    44  O   -0.306089
    45  O   -0.325860
    46  N   -0.068841
    47  N   -0.047734
    48  N   -0.062730
    49  N   -0.055889
    50  Fe  -0.253856
    51  O   -0.476690
    52  H    0.151292
    53  H    0.130103
    54  H    0.143817
    55  H    0.147413
    56  H    0.173680
    57  H    0.135850
    58  H    0.135959
    59  H    0.135501
    60  H    0.128822
    61  H    0.135505
    62  H    0.125582
    63  H    0.108385
    64  H    0.354309
    65  H    0.091256
    66  H    0.345885
    67  H    0.348756
    68  H    0.118934
    69  H    0.128625
    70  H    0.123860
    71  H    0.129972
    72  H    0.350129
    73  H    0.130699
    74  H    0.140317
    75  H    0.127107
    76  H    0.089332
    77  H    0.155373
    78  H    0.143019
    79  H    0.129479
    80  H    0.137685
    81  H    0.147270
    82  H    0.117523
    83  H    0.086105
    84  H    0.139342
    85  H    0.129594
    86  H    0.116641
    87  H    0.140670
    88  H    0.128986
    89  H    0.116377
    90  H    0.113756
 Sum of Mulliken charges =  -0.00000

 Dipole moment (field-independent basis, Debye):
    X=             -1.4989    Y=              3.6731    Z=             -0.4098  Tot=              3.9883
 Quadrupole moment (field-independent basis, Debye-Ang):
   XX=           -319.0788   YY=           -278.0032   ZZ=           -265.7739
   XY=             19.8333   XZ=            -32.3343   YZ=              8.2834

  Exact polarizability: 880.106 -14.996 813.576  39.745  30.692 355.295
 Approx polarizability:1502.752 -34.6691544.371  92.914  76.010 574.579

 Normal termination of Gaussian 16 at Sun Jan 15 18:11:40 2023.
