 Gaussian 16, Revision A.03,
 Gaussian 16:  ES64L-G16RevA.03 25-Dec-2016

 ----------------------------------------------------------------------
 # PBE1PBE/def2TZVP empiricaldispersion=GD3BJ int=(grid=ultrafine) geom
 =check pop=nbo
 ----------------------------------------------------------------------

 ---------
 1ccc_II_Q
 ---------
 Structure from the checkpoint file:  "1ccc_II_Q.chk"
 Charge =  0 Multiplicity = 5

                         Standard orientation:
 ---------------------------------------------------------------------
 Center     Atomic      Atomic             Coordinates (Angstroms)
 Number     Number       Type             X           Y           Z
 ---------------------------------------------------------------------
      1          6           0       -1.569949   -1.838410    4.961434
      2          6           0       -1.479392   -0.895843    3.750616
      3          7           0       -1.693155    0.411778    3.691563
      4          6           0       -1.162440   -1.249704    2.466652
      5          6           0       -1.491293    0.845786    2.471301
      6          7           0       -1.168366   -0.171647    1.718591
      7          1           0       -2.121131    0.949831    4.376849
      8          6           0        2.363359    0.103689    0.237942
      9          6           0       -0.981740    3.544414   -0.259818
     10          6           0       -4.244496    0.084665   -0.644771
     11          6           0       -0.862945   -3.276823   -0.688878
     12          6           0        1.752141    1.363646    0.148080
     13          6           0        2.454817    2.531999    0.156170
     14          6           0        1.492355    3.551874    0.041755
     15          6           0        0.266693    2.918016   -0.082441
     16          6           0        1.707747    5.070714   -0.013430
     17          6           0        3.977852    2.572143    0.241803
     18          6           0        4.707806    2.821643   -1.051435
     19          6           0        6.232571    2.854570   -0.893225
     20          8           0        6.787480    3.798328   -0.347173
     21          8           0        6.943109    1.961180   -1.326830
     22          6           0       -2.241017    2.906098   -0.311552
     23          6           0       -3.487070    3.554977   -0.319243
     24          6           0       -4.429216    2.525371   -0.361342
     25          6           0       -3.690649    1.344435   -0.428095
     26          6           0       -3.679044    5.054793   -0.175876
     27          6           0       -5.832646    2.508679   -0.349091
     28          6           0       -6.747712    3.599106   -0.257492
     29          6           0       -3.640666   -1.168920   -0.768240
     30          6           0       -4.318680   -2.334301   -1.125064
     31          6           0       -3.295330   -3.284463   -1.259688
     32          6           0       -2.107901   -2.663283   -0.841590
     33          6           0       -5.839420   -2.461272   -1.364908
     34          6           0       -3.358381   -4.630509   -1.627580
     35          6           0       -4.512237   -5.519088   -1.568492
     36          6           0        0.351357   -2.680930   -0.354800
     37          6           0        1.495817   -3.361923    0.022047
     38          6           0        2.433591   -2.378155    0.304765
     39          6           0        1.791134   -1.161598    0.078546
     40          6           0        1.721205   -4.853869    0.110569
     41          6           0        3.894296   -2.597839    0.721528
     42          6           0        4.848486   -2.684053   -0.476101
     43          6           0        6.322185   -2.738898   -0.113061
     44          8           0        7.159932   -2.240473   -0.839094
     45          8           0        6.646332   -3.290452    0.924737
     46          7           0        0.432203    1.593744    0.002826
     47          7           0       -2.395877    1.581569   -0.285487
     48          7           0       -2.322517   -1.381173   -0.565956
     49          7           0        0.533194   -1.359426   -0.297990
     50         26           0       -0.955432    0.100357   -0.255377
     51          8           0       -0.710817    0.414192   -2.071370
     52          1           0       -0.939628   -2.687861    4.800098
     53          1           0       -1.251465   -1.319985    5.841606
     54          1           0       -2.581790   -2.163516    5.085460
     55          1           0       -0.945674   -2.241587    2.128896
     56          1           0       -1.576626    1.861783    2.146695
     57          1           0        1.529701    5.420262   -1.008928
     58          1           0        1.029689    5.551814    0.660129
     59          1           0        2.713992    5.298783    0.270042
     60          1           0        4.251353    3.343162    0.931460
     61          1           0        4.312919    1.635882    0.636830
     62          1           0        4.452073    2.047049   -1.743898
     63          1           0        4.384735    3.760007   -1.451432
     64          1           0        7.582380    4.175424   -0.731274
     65          1           0        3.410323    0.112777    0.458589
     66          1           0       -0.994066   -0.188352   -2.762970
     67          1           0       -0.296596    1.184219   -2.467702
     68          1           0        3.959897   -3.507907    1.280430
     69          1           0        4.199766   -1.785638    1.347560
     70          1           0        4.606620   -3.562382   -1.037295
     71          1           0        4.686239   -1.829053   -1.098637
     72          1           0        7.405716   -2.676398   -1.658337
     73          1           0        2.383060   -5.161637   -0.671816
     74          1           0        2.154480   -5.093467    1.059129
     75          1           0        0.785633   -5.362681    0.007060
     76          1           0       -0.838466   -4.334645   -0.847974
     77          1           0       -6.044495   -3.378566   -1.876197
     78          1           0       -6.350507   -2.454929   -0.424881
     79          1           0       -6.176616   -1.638271   -1.959775
     80          1           0       -4.656793   -6.259408   -2.327392
     81          1           0       -5.214736   -5.431083   -0.766214
     82          1           0       -2.451020   -5.060786   -1.996982
     83          1           0       -5.310973    0.075810   -0.731068
     84          1           0       -7.546102    3.688347   -0.964252
     85          1           0       -6.635719    4.327813    0.517972
     86          1           0       -6.280189    1.539244   -0.418379
     87          1           0       -4.097633    5.448676   -1.078394
     88          1           0       -4.341387    5.253143    0.640738
     89          1           0       -2.733355    5.519163    0.011030
     90          1           0       -0.976188    4.609126   -0.365920
 ---------------------------------------------------------------------

 SCF Done:  E(UPBE1PBE) =  -3438.58843774     A.U. after   63 cycles

 Alpha virt. eigenvalues --    0.71984   0.72180   0.72319   0.72495   0.72941
 Alpha virt. eigenvalues --    0.73313   0.73478   0.73744   0.73958   0.74369
 Alpha virt. eigenvalues --    0.74886   0.75220   0.75580   0.76000   0.76185

  Beta  occ. eigenvalues -- -256.32500 -30.05201 -25.89014 -25.88104 -25.88098
  Beta  occ. eigenvalues --  -19.25622 -19.24513 -19.24487 -19.16920 -19.16655
  Beta  occ. eigenvalues --  -14.44958 -14.37683 -14.35316 -14.35191 -14.34608
  Beta  occ. eigenvalues --  -14.34288 -10.34409 -10.33550 -10.27389 -10.25954
  Beta  occ. eigenvalues --  -10.24180 -10.23704 -10.23675 -10.23495 -10.23478
  Beta  occ. eigenvalues --  -10.23410 -10.23246 -10.23221 -10.23088 -10.22953
  Beta  occ. eigenvalues --  -10.22915 -10.22849 -10.22647 -10.22625 -10.22510
  Beta  occ. eigenvalues --  -10.22425 -10.22100 -10.22016 -10.21782 -10.21780
  Beta  occ. eigenvalues --  -10.21687 -10.21583 -10.21542 -10.21407 -10.21380
  Beta  occ. eigenvalues --  -10.21322 -10.21292 -10.21224 -10.21092 -10.21077
  Beta  occ. eigenvalues --  -10.21058 -10.21000 -10.20981 -10.20738  -3.36236
  Beta  occ. eigenvalues --   -2.11137  -2.11115  -2.10777  -1.18416  -1.17550
  Beta  occ. eigenvalues --   -1.08963  -1.08742  -1.02956  -1.02789  -0.99724
  Beta  occ. eigenvalues --   -0.98902  -0.98498  -0.97846  -0.93054  -0.84250
  Beta  occ. eigenvalues --   -0.83303  -0.82754  -0.82533  -0.81942  -0.81189
  Beta  occ. eigenvalues --   -0.81183  -0.80892  -0.79030  -0.78453  -0.76907
  Beta  occ. eigenvalues --   -0.75399  -0.74910  -0.73706  -0.73040  -0.72391
  Beta  occ. eigenvalues --   -0.71640  -0.71113  -0.70086  -0.69663  -0.69334
  Beta  occ. eigenvalues --   -0.66606  -0.66487  -0.66356  -0.65375  -0.65049
  Beta  occ. eigenvalues --   -0.63195  -0.62558  -0.61627  -0.60134  -0.58740
  Beta  occ. eigenvalues --   -0.58215  -0.57329  -0.56347  -0.55080  -0.54437
  Beta  occ. eigenvalues --   -0.53614  -0.52603  -0.52406  -0.52339  -0.52002
  Beta  occ. eigenvalues --   -0.51562  -0.50886  -0.50638  -0.50185  -0.49900
  Beta  occ. eigenvalues --   -0.49569  -0.49109  -0.48365  -0.48139  -0.48114
  Beta  occ. eigenvalues --   -0.47149  -0.46353  -0.45975  -0.45719  -0.45255
  Beta  occ. eigenvalues --   -0.44813  -0.44620  -0.44335  -0.44246  -0.43910
  Beta  occ. eigenvalues --   -0.43867  -0.43672  -0.43585  -0.43107  -0.42997
  Beta  occ. eigenvalues --   -0.42670  -0.42452  -0.42423  -0.41961  -0.41694
  Beta  occ. eigenvalues --   -0.41615  -0.41253  -0.41078  -0.40596  -0.40426
  Beta  occ. eigenvalues --   -0.40151  -0.39711  -0.39116  -0.38734  -0.38623
  Beta  occ. eigenvalues --   -0.38528  -0.38251  -0.38148  -0.37587  -0.37462
  Beta  occ. eigenvalues --   -0.37196  -0.36532  -0.36352  -0.36098  -0.35919
  Beta  occ. eigenvalues --   -0.35476  -0.35304  -0.35007  -0.33877  -0.33283
  Beta  occ. eigenvalues --   -0.32989  -0.32700  -0.32574  -0.32296  -0.31183
  Beta  occ. eigenvalues --   -0.30216  -0.29715  -0.29462  -0.28804  -0.27454
  Beta  occ. eigenvalues --   -0.27223  -0.26917  -0.26849  -0.24387  -0.23270
  Beta  occ. eigenvalues --   -0.22991  -0.21565  -0.20512  -0.18711  -0.18371
  Beta  occ. eigenvalues --   -0.14546
  Beta virt. eigenvalues --   -0.08064  -0.07340  -0.04695  -0.02624  -0.00209
  Beta virt. eigenvalues --   -0.00073   0.00001   0.00044   0.00721   0.00986
  Beta virt. eigenvalues --    0.02785   0.03079   0.03758   0.04146   0.04570

 Mulliken charges and spin densities:
               1          2
     1  C   -0.374346   0.000985
     2  C    0.147971   0.004279
     3  N   -0.204501   0.001405
     4  C   -0.208603   0.002321
     5  C    0.021283   0.003812
     6  N    0.020405   0.014526
     7  H    0.220778   0.001685
     8  C   -0.462141   0.012155
     9  C   -0.526287  -0.118187
    10  C   -0.451777   0.022941
    11  C   -0.532997  -0.037353
    12  C    0.342082  -0.035018
    13  C    0.044139   0.052465
    14  C   -0.065814  -0.059301
    15  C    0.219024   0.044400
    16  C   -0.409691   0.005782
    17  C   -0.468860  -0.003251
    18  C   -0.090966   0.001920
    19  C    0.225658   0.000218
    20  O   -0.321796   0.000008
    21  O   -0.354516   0.000152
    22  C    0.297294   0.063389
    23  C   -0.130436  -0.185139
    24  C   -0.012217   0.147891
    25  C    0.281564  -0.047333
    26  C   -0.366943   0.010696
    27  C   -0.091044  -0.368095
    28  C   -0.342944   0.492582
    29  C    0.268925  -0.043525
    30  C   -0.106162   0.089676
    31  C    0.022183  -0.085929
    32  C    0.274326   0.006640
    33  C   -0.401552  -0.005554
    34  C   -0.166698   0.143994
    35  C   -0.358580  -0.204429
    36  C    0.284577   0.001322
    37  C   -0.096023  -0.027717
    38  C    0.013530   0.021044
    39  C    0.243396  -0.029701
    40  C   -0.392315   0.003319
    41  C   -0.296896  -0.000376
    42  C   -0.260885   0.000420
    43  C    0.271776   0.000099
    44  O   -0.306095   0.000018
    45  O   -0.325853  -0.000021
    46  N   -0.120263   0.028056
    47  N   -0.116625  -0.004094
    48  N   -0.117180   0.050318
    49  N   -0.117994   0.036199
    50  Fe  -0.026686   3.961558
    51  O   -0.484716   0.031017
    52  H    0.152064   0.000009
    53  H    0.130440   0.000145
    54  H    0.144526   0.000161
    55  H    0.148913   0.002106
    56  H    0.176417   0.002115
    57  H    0.134733  -0.002881
    58  H    0.134808  -0.002198
    59  H    0.134398   0.000054
    60  H    0.128677   0.000884
    61  H    0.135193   0.000469
    62  H    0.125352  -0.000185
    63  H    0.108804  -0.000030
    64  H    0.354280   0.000005
    65  H    0.090979  -0.001518
    66  H    0.340805   0.011597
    67  H    0.340775   0.010961
    68  H    0.118991   0.000431
    69  H    0.128542   0.000273
    70  H    0.124184   0.000004
    71  H    0.129984   0.000067
    72  H    0.350172   0.000001
    73  H    0.129922  -0.001550
    74  H    0.139116  -0.000709
    75  H    0.127556  -0.000140
    76  H    0.088678   0.001428
    77  H    0.156128   0.001177
    78  H    0.142448   0.002724
    79  H    0.128808   0.001925
    80  H    0.136068   0.010032
    81  H    0.145531   0.010100
    82  H    0.115979  -0.011185
    83  H    0.085739  -0.001355
    84  H    0.139237  -0.028099
    85  H    0.129786  -0.028730
    86  H    0.116047   0.025763
    87  H    0.140530  -0.006409
    88  H    0.127186  -0.005043
    89  H    0.116989  -0.000011
    90  H    0.112700   0.005349
 Sum of Mulliken charges =  -0.00000   4.00000

 Dipole moment (field-independent basis, Debye):
    X=             -1.7381    Y=              3.9861    Z=             -0.1287  Tot=              4.3505
 Quadrupole moment (field-independent basis, Debye-Ang):
   XX=           -318.7717   YY=           -281.9713   ZZ=           -266.6376
   XY=             17.2652   XZ=            -32.9364   YZ=              7.7317

 Summary of Natural Population Analysis:

                                       Natural Population
                Natural  -----------------------------------------------
    Atom  No    Charge         Core      Valence    Rydberg      Total
 -----------------------------------------------------------------------
      C    1   -0.31613      0.99970     2.31354    0.00290     3.31613
      C    2    0.05149      0.99955     1.93926    0.00970     2.94851
      N    3   -0.22967      0.99964     2.71953    0.01050     3.72967
      C    4   -0.02666      0.99948     2.01676    0.01043     3.02666
      C    5    0.09414      0.99965     1.89446    0.01175     2.90586
      N    6   -0.17494      0.99969     2.65286    0.02239     3.67494
      H    7    0.20491      0.00000     0.29431    0.00078     0.29509
      C    8   -0.07882      0.99955     2.07144    0.00784     3.07882
      C    9   -0.16784      0.99955     2.15978    0.00851     3.16784
      C   10   -0.08424      0.99954     2.07705    0.00765     3.08424
      C   11   -0.12466      0.99954     2.11699    0.00814     3.12466
      C   12    0.03315      0.99942     1.95596    0.01147     2.96685
      C   13    0.00894      0.99939     1.98217    0.00950     2.99106
      C   14   -0.04480      0.99943     2.03675    0.00862     3.04480
      C   15    0.07692      0.99948     1.91216    0.01144     2.92308
      C   16   -0.31670      0.99970     2.31342    0.00358     3.31670
      C   17   -0.20778      0.99965     2.20120    0.00693     3.20778
      C   18   -0.24297      0.99962     2.23509    0.00827     3.24297
      C   19    0.38310      0.99978     1.59706    0.02006     2.61690
      O   20   -0.33230      0.99978     3.31772    0.01480     4.33230
      O   21   -0.30142      0.99988     3.28842    0.01311     4.30142
      C   22    0.08968      0.99951     1.90001    0.01080     2.91032
      C   23   -0.08438      0.99947     2.07601    0.00890     3.08438
      C   24   -0.00755      0.99944     1.99775    0.01036     3.00755
      C   25    0.05463      0.99950     1.93538    0.01049     2.94537
      C   26   -0.31276      0.99970     2.30892    0.00413     3.31276
      C   27   -0.23303      0.99964     2.22353    0.00985     3.23303
      C   28    0.01650      0.99972     1.97746    0.00632     2.98350
      C   29    0.02705      0.99948     1.96253    0.01094     2.97295
      C   30    0.05703      0.99943     1.93479    0.00876     2.94297
      C   31   -0.10518      0.99946     2.09505    0.01067     3.10518
      C   32    0.08303      0.99952     1.90585    0.01161     2.91697
      C   33   -0.32357      0.99969     2.32036    0.00351     3.32357
      C   34   -0.03604      0.99963     2.02714    0.00927     3.03604
      C   35   -0.30470      0.99974     2.29813    0.00682     3.30470
      C   36    0.06917      0.99947     1.92072    0.01065     2.93083
      C   37   -0.03442      0.99942     2.02637    0.00862     3.03442
      C   38   -0.00129      0.99943     1.99270    0.00916     3.00129
      C   39    0.04297      0.99948     1.94746    0.01008     2.95703
      C   40   -0.31628      0.99970     2.31284    0.00374     3.31628
      C   41   -0.20776      0.99967     2.20053    0.00755     3.20776
      C   42   -0.25691      0.99963     2.24895    0.00833     3.25691
      C   43    0.38450      0.99976     1.59666    0.01908     2.61550
      O   44   -0.33223      0.99976     3.31612    0.01634     4.33223
      O   45   -0.28479      0.99988     3.27227    0.01264     4.28479
      N   46   -0.20305      0.99969     2.68003    0.02332     3.70305
      N   47   -0.21007      0.99968     2.68986    0.02053     3.71007
      N   48   -0.17863      0.99969     2.65609    0.02285     3.67863
      N   49   -0.19088      0.99968     2.67070    0.02050     3.69088
     Fe   50    2.18577      8.99602     1.79207    0.02614    10.81423
      O   51   -0.36411      0.99988     3.35528    0.00895     4.36411
      H   52    0.11767      0.00000     0.38186    0.00047     0.38233
      H   53    0.10818      0.00000     0.39117    0.00065     0.39182
      H   54    0.11070      0.00000     0.38862    0.00068     0.38930
      H   55    0.11262      0.00000     0.38664    0.00073     0.38738
      H   56    0.11413      0.00000     0.38502    0.00085     0.38587
      H   57    0.10681      0.00000     0.39226    0.00093     0.39319
      H   58    0.10800      0.00000     0.39114    0.00087     0.39200
      H   59    0.10851      0.00000     0.39083    0.00066     0.39149
      H   60    0.10858      0.00000     0.39030    0.00112     0.39142
      H   61    0.10807      0.00000     0.39114    0.00079     0.39193
      H   62    0.11694      0.00000     0.38232    0.00074     0.38306
      H   63    0.10976      0.00000     0.38946    0.00078     0.39024
      H   64    0.25827      0.00000     0.24034    0.00139     0.24173
      H   65    0.10062      0.00000     0.39809    0.00129     0.39938
      H   66    0.24986      0.00000     0.24785    0.00229     0.25014
      H   67    0.25101      0.00000     0.24647    0.00252     0.24899
      H   68    0.11544      0.00000     0.38375    0.00081     0.38456
      H   69    0.10841      0.00000     0.39058    0.00101     0.39159
      H   70    0.11345      0.00000     0.38585    0.00070     0.38655
      H   71    0.10898      0.00000     0.39022    0.00080     0.39102
      H   72    0.25656      0.00000     0.24225    0.00119     0.24344
      H   73    0.10742      0.00000     0.39168    0.00090     0.39258
      H   74    0.11087      0.00000     0.38829    0.00084     0.38913
      H   75    0.10866      0.00000     0.39071    0.00063     0.39134
      H   76    0.10431      0.00000     0.39443    0.00126     0.39569
      H   77    0.11840      0.00000     0.38071    0.00088     0.38160
      H   78    0.11264      0.00000     0.38664    0.00072     0.38736
      H   79    0.10890      0.00000     0.39029    0.00081     0.39110
      H   80    0.10090      0.00000     0.39835    0.00075     0.39910
      H   81    0.09964      0.00000     0.39952    0.00084     0.40036
      H   82    0.09596      0.00000     0.40306    0.00098     0.40404
      H   83    0.10085      0.00000     0.39745    0.00170     0.39915
      H   84    0.08797      0.00000     0.41112    0.00091     0.41203
      H   85    0.08402      0.00000     0.41491    0.00107     0.41598
      H   86    0.10955      0.00000     0.38969    0.00076     0.39045
      H   87    0.10991      0.00000     0.38903    0.00107     0.39009
      H   88    0.10802      0.00000     0.39119    0.00079     0.39198
      H   89    0.10675      0.00000     0.39261    0.00065     0.39325
      H   90    0.10627      0.00000     0.39245    0.00128     0.39373
 =======================================================================
   * Total *    2.00000     57.97683   127.42576    0.59742   186.00000

 Normal termination of Gaussian 16 at Fri Jan 20 16:14:12 2023.
