 Gaussian 16, Revision A.03,
 Gaussian 16:  ES64L-G16RevA.03 25-Dec-2016

 ---------------------------------------------------------------------
 # polar def2tzvp empiricaldispersion=gd3bj int=grid=ultrafine pbe1pbe
 ---------------------------------------------------------------------

 ---------
 1cmt_II_S
 ---------
 Symbolic Z-matrix:
 Charge =  0 Multiplicity = 1

                         Standard orientation:
 ---------------------------------------------------------------------
 Center     Atomic      Atomic             Coordinates (Angstroms)
 Number     Number       Type             X           Y           Z
 ---------------------------------------------------------------------
      1          6           0       -1.403921   -1.808380    4.954677
      2          6           0       -1.538406   -0.933030    3.707023
      3          7           0       -2.140717    0.238213    3.547021
      4          6           0       -0.978698   -1.214236    2.471389
      5          6           0       -1.955322    0.668200    2.314520
      6          7           0       -1.246482   -0.217511    1.656150
      7          6           0        2.384055    0.132499    0.255263
      8          6           0       -1.011414    3.457681   -0.239385
      9          6           0       -4.318413   -0.000245   -0.607826
     10          6           0       -0.816123   -3.280339   -0.665192
     11          6           0        1.769361    1.395727    0.195090
     12          6           0        2.430390    2.611118    0.193664
     13          6           0        1.448885    3.590432    0.070491
     14          6           0        0.258373    2.891972   -0.032960
     15          6           0        1.636834    5.105998    0.073343
     16          6           0        3.932014    2.808772    0.274719
     17          6           0        4.649452    2.805400   -1.082625
     18          6           0        6.145829    2.912281   -0.860928
     19          8           0        6.618720    3.885272   -0.293275
     20          8           0        6.894791    2.022645   -1.218749
     21          6           0       -2.269133    2.834061   -0.379750
     22          6           0       -3.483307    3.504292   -0.399003
     23          6           0       -4.456244    2.479119   -0.426188
     24          6           0       -3.755914    1.278367   -0.498850
     25          6           0       -3.626566    5.035306   -0.363993
     26          6           0       -5.849091    2.534316   -0.322827
     27          6           0       -6.536806    3.836675    0.127183
     28          6           0       -3.659476   -1.236218   -0.734181
     29          6           0       -4.298888   -2.434034   -1.014542
     30          6           0       -3.251467   -3.370006   -1.147327
     31          6           0       -2.081283   -2.689463   -0.823540
     32          6           0       -5.803898   -2.537903   -1.305708
     33          6           0       -3.243539   -4.730213   -1.495121
     34          6           0       -4.372583   -5.641063   -1.608170
     35          6           0        0.386594   -2.674491   -0.310798
     36          6           0        1.561755   -3.346358    0.007574
     37          6           0        2.492876   -2.359327    0.311845
     38          6           0        1.822870   -1.148872    0.125681
     39          6           0        1.791772   -4.856468    0.042469
     40          6           0        3.942816   -2.580067    0.758586
     41          6           0        4.888832   -2.468632   -0.450974
     42          6           0        6.391922   -2.604927   -0.194777
     43          8           0        7.179174   -2.359866   -1.100477
     44          8           0        6.819906   -2.981318    0.887415
     45          7           0        0.462929    1.587215    0.096200
     46          7           0       -2.442756    1.507079   -0.461354
     47          7           0       -2.325429   -1.382439   -0.662826
     48          7           0        0.536861   -1.348065   -0.177235
     49         26           0       -0.919930    0.118914   -0.308527
     50          8           0       -0.656781    0.333733   -2.291856
     51          1           0        6.726276   -2.421502    1.661650
     52          1           0        4.608620   -3.224949   -1.154085
     53          1           0        4.721689   -1.515784   -0.908188
     54          1           0        4.206885   -1.840114    1.484972
     55          1           0        4.035903   -3.553290    1.193410
     56          1           0        1.281055   -5.275686    0.884089
     57          1           0        1.415596   -5.295446   -0.857914
     58          1           0        2.839744   -5.055795    0.125669
     59          1           0        3.440246    0.149832    0.425735
     60          1           0        4.124307    3.744655    0.756432
     61          1           0        4.344019    2.026078    0.876833
     62          1           0        4.314543    3.637839   -1.665533
     63          1           0        4.429372    1.895312   -1.600510
     64          1           0        7.654648    1.789349   -0.680428
     65          1           0        1.883754    5.432915    1.061804
     66          1           0        2.428212    5.368518   -0.597257
     67          1           0        0.730222    5.578423   -0.242519
     68          1           0       -1.026681    4.525892   -0.299330
     69          1           0       -3.275306    5.404981    0.576675
     70          1           0       -3.048423    5.465803   -1.154767
     71          1           0       -4.655628    5.300204   -0.489533
     72          1           0       -6.437497    1.671683   -0.556372
     73          1           0       -6.663311    4.483009   -0.716114
     74          1           0       -7.493651    3.607801    0.547853
     75          1           0       -5.387508   -0.041667   -0.592995
     76          1           0       -6.275967   -1.604403   -1.080703
     77          1           0       -5.951890   -2.772471   -2.339137
     78          1           0       -6.231953   -3.309172   -0.700057
     79          1           0       -5.269556   -5.135005   -1.317923
     80          1           0       -4.462529   -5.973600   -2.621200
     81          1           0       -2.282537   -5.151726   -1.704173
     82          1           0       -0.771004   -4.334996   -0.840013
     83          1           0       -0.422503   -2.093735    2.222332
     84          1           0       -2.323506    1.590393    1.915896
     85          1           0       -2.657005    0.721574    4.253992
     86          1           0       -2.022791   -1.415737    5.734248
     87          1           0       -1.710997   -2.807171    4.724415
     88          1           0       -0.383925   -1.814395    5.277898
     89          1           0       -0.499559    1.179010   -1.864787
     90          1           0       -0.115341    0.268774   -3.081934
 ---------------------------------------------------------------------

 SCF Done:  E(RPBE1PBE) =  -3438.54000301     A.U. after   27 cycles

 The electronic state is 1-A.
 Alpha  occ. eigenvalues -- -256.32176 -30.08735 -25.91490 -25.91261 -25.91234
 Alpha  occ. eigenvalues --  -19.26413 -19.26163 -19.23119 -19.18057 -19.16905
 Alpha  occ. eigenvalues --  -14.46096 -14.39898 -14.37763 -14.37172 -14.37017
 Alpha  occ. eigenvalues --  -14.36861 -10.35304 -10.34482 -10.27933 -10.26880
 Alpha  occ. eigenvalues --  -10.25548 -10.25149 -10.25106 -10.24996 -10.24977
 Alpha  occ. eigenvalues --  -10.24794 -10.24673 -10.24638 -10.24589 -10.24278
 Alpha  occ. eigenvalues --  -10.24150 -10.23878 -10.23842 -10.23732 -10.23723
 Alpha  occ. eigenvalues --  -10.23630 -10.23605 -10.23472 -10.23403 -10.23227
 Alpha  occ. eigenvalues --  -10.23176 -10.23129 -10.23019 -10.22965 -10.22879
 Alpha  occ. eigenvalues --  -10.22640 -10.22601 -10.22301 -10.22081 -10.22041
 Alpha  occ. eigenvalues --  -10.21859 -10.21495 -10.20515 -10.20050  -3.43659
 Alpha  occ. eigenvalues --   -2.19716  -2.18976  -2.18918  -1.18986  -1.18945
 Alpha  occ. eigenvalues --   -1.09196  -1.07346  -1.04022  -1.03107  -1.01184
 Alpha  occ. eigenvalues --   -1.00398  -0.99946  -0.99117  -0.93683  -0.85040
 Alpha  occ. eigenvalues --   -0.84478  -0.84209  -0.83258  -0.82823  -0.82292
 Alpha  occ. eigenvalues --   -0.82169  -0.81744  -0.80242  -0.79542  -0.77756
 Alpha  occ. eigenvalues --   -0.76087  -0.75696  -0.74386  -0.73660  -0.73638
 Alpha  occ. eigenvalues --   -0.72138  -0.71507  -0.71133  -0.70819  -0.70657
 Alpha  occ. eigenvalues --   -0.68128  -0.67479  -0.66845  -0.66672  -0.65688
 Alpha  occ. eigenvalues --   -0.63772  -0.63094  -0.62118  -0.60060  -0.59942
 Alpha  occ. eigenvalues --   -0.59446  -0.57888  -0.57721  -0.56382  -0.55230
 Alpha  occ. eigenvalues --   -0.54972  -0.54276  -0.53678  -0.53383  -0.52868
 Alpha  occ. eigenvalues --   -0.52599  -0.51992  -0.51290  -0.50363  -0.50030
 Alpha  occ. eigenvalues --   -0.49828  -0.49710  -0.49508  -0.49307  -0.48099
 Alpha  occ. eigenvalues --   -0.47523  -0.46671  -0.46419  -0.46276  -0.46227
 Alpha  occ. eigenvalues --   -0.45596  -0.45107  -0.44976  -0.44802  -0.44573
 Alpha  occ. eigenvalues --   -0.44410  -0.44323  -0.44016  -0.43850  -0.43620
 Alpha  occ. eigenvalues --   -0.43480  -0.42833  -0.42628  -0.42247  -0.42059
 Alpha  occ. eigenvalues --   -0.41894  -0.41746  -0.41262  -0.41215  -0.40873
 Alpha  occ. eigenvalues --   -0.40732  -0.40435  -0.39982  -0.39740  -0.39721
 Alpha  occ. eigenvalues --   -0.39309  -0.39108  -0.39002  -0.38385  -0.38199
 Alpha  occ. eigenvalues --   -0.37891  -0.37387  -0.37076  -0.37023  -0.36860
 Alpha  occ. eigenvalues --   -0.36253  -0.35984  -0.35548  -0.35256  -0.34225
 Alpha  occ. eigenvalues --   -0.34029  -0.33796  -0.33709  -0.32618  -0.32053
 Alpha  occ. eigenvalues --   -0.31215  -0.30971  -0.30154  -0.29772  -0.28542
 Alpha  occ. eigenvalues --   -0.28077  -0.27754  -0.27592  -0.25557  -0.24923
 Alpha  occ. eigenvalues --   -0.24383  -0.22393  -0.21798  -0.21441  -0.20463
 Alpha  occ. eigenvalues --   -0.19884  -0.19722  -0.19009
 Alpha virt. eigenvalues --   -0.10056  -0.09324  -0.06521  -0.04134  -0.01402
 Alpha virt. eigenvalues --   -0.00591   0.00026   0.00456   0.00670   0.01978
 Alpha virt. eigenvalues --    0.02213   0.02792   0.03254   0.03505   0.03995

 Mulliken charges:
               1
     1  C   -0.357580
     2  C    0.106091
     3  N   -0.202038
     4  C   -0.175791
     5  C    0.019018
     6  N    0.029210
     7  C   -0.501170
     8  C   -0.470345
     9  C   -0.495121
    10  C   -0.464104
    11  C    0.298911
    12  C    0.053983
    13  C   -0.131727
    14  C    0.326736
    15  C   -0.389400
    16  C   -0.428540
    17  C   -0.115010
    18  C    0.222625
    19  O   -0.368232
    20  O   -0.301296
    21  C    0.245162
    22  C   -0.115098
    23  C    0.008236
    24  C    0.242215
    25  C   -0.341454
    26  C   -0.098316
    27  C   -0.448606
    28  C    0.350119
    29  C   -0.138986
    30  C    0.028138
    31  C    0.280812
    32  C   -0.358736
    33  C   -0.131159
    34  C   -0.348497
    35  C    0.187125
    36  C   -0.070873
    37  C    0.037869
    38  C    0.239389
    39  C   -0.396179
    40  C   -0.373833
    41  C   -0.249054
    42  C    0.260350
    43  O   -0.327156
    44  O   -0.303076
    45  N   -0.094805
    46  N   -0.102852
    47  N   -0.075941
    48  N   -0.060196
    49  Fe  -0.207947
    50  O   -0.478514
    51  H    0.347755
    52  H    0.141054
    53  H    0.145712
    54  H    0.120517
    55  H    0.140962
    56  H    0.145505
    57  H    0.140349
    58  H    0.127379
    59  H    0.097233
    60  H    0.146694
    61  H    0.120166
    62  H    0.125428
    63  H    0.120804
    64  H    0.354676
    65  H    0.145236
    66  H    0.139348
    67  H    0.126957
    68  H    0.107841
    69  H    0.133486
    70  H    0.136474
    71  H    0.143166
    72  H    0.136069
    73  H    0.154865
    74  H    0.113295
    75  H    0.074165
    76  H    0.116015
    77  H    0.149255
    78  H    0.144519
    79  H    0.094900
    80  H    0.134752
    81  H    0.109657
    82  H    0.099887
    83  H    0.143042
    84  H    0.177618
    85  H    0.231595
    86  H    0.122992
    87  H    0.153724
    88  H    0.146804
    89  H    0.341869
    90  H    0.333877
 Sum of Mulliken charges =  -0.00000

 Dipole moment (field-independent basis, Debye):
    X=             -1.3008    Y=              0.1356    Z=              5.5879  Tot=              5.7389
 Quadrupole moment (field-independent basis, Debye-Ang):
   XX=           -339.1375   YY=           -323.4807   ZZ=           -267.9662
   XY=            -12.9077   XZ=             12.0395   YZ=            -12.7978

  Exact polarizability: 891.149 -25.289 836.171  31.145  41.948 357.452
 Approx polarizability:1563.798 -78.4281606.776  61.442 101.712 584.915

 Normal termination of Gaussian 16 at Thu Sep  1 19:45:41 2022.
