 Gaussian 16, Revision A.03,
 Gaussian 16:  ES64L-G16RevA.03 25-Dec-2016

 ----------------------------------------------------------------------
 # PBE1PBE/def2TZVP empiricaldispersion=GD3BJ scf=maxcycle=999 geom=che
 ck pop=nbo
 ----------------------------------------------------------------------

 ----------
 1cpo_III_H
 ----------
 Structure from the checkpoint file:  "1cpo_III_H.chk"
 Charge =  1 Multiplicity = 6

                         Standard orientation:
 ---------------------------------------------------------------------
 Center     Atomic      Atomic             Coordinates (Angstroms)
 Number     Number       Type             X           Y           Z
 ---------------------------------------------------------------------
      1          6           0       -0.115849   -1.148897    3.136053
      2         16           0       -1.612746   -0.207226    2.933680
      3          6           0        2.342646   -0.261906   -0.131958
      4          6           0       -1.321712   -3.437900   -0.186582
      5          6           0       -4.449186    0.212277   -0.495150
      6          6           0       -0.809233    3.428447   -0.174485
      7          6           0        1.613531   -1.453944   -0.057399
      8          6           0        2.185316   -2.782506   -0.041826
      9          6           0        1.164868   -3.659898   -0.102025
     10          6           0       -0.052567   -2.893977   -0.084100
     11          6           0        1.250531   -5.163631   -0.185227
     12          6           0        3.653789   -3.080560    0.045366
     13          6           0        4.330407   -2.787000   -1.289823
     14          6           0        5.769333   -2.392901   -1.116145
     15          8           0        6.041716   -1.178619   -0.987492
     16          8           0        6.640275   -3.291130   -1.124667
     17          6           0       -2.515407   -2.735933   -0.177394
     18          6           0       -3.831718   -3.336575   -0.249807
     19          6           0       -4.719520   -2.321114   -0.354182
     20          6           0       -3.947882   -1.078272   -0.330398
     21          6           0       -4.133960   -4.843753   -0.192977
     22          6           0       -6.065936   -2.685291   -0.455015
     23          6           0       -7.169424   -1.862086   -0.383263
     24          6           0       -3.727715    1.408606   -0.386405
     25          6           0       -4.290309    2.723905   -0.590396
     26          6           0       -3.315342    3.623795   -0.286635
     27          6           0       -2.088852    2.877896   -0.155519
     28          6           0       -5.695986    2.953308   -1.123921
     29          6           0       -3.322984    5.011859   -0.116632
     30          6           0       -4.356348    5.779888   -0.669997
     31          6           0        0.383121    2.717050   -0.124147
     32          6           0        1.706728    3.282583   -0.296643
     33          6           0        2.585143    2.251579   -0.281039
     34          6           0        1.814914    1.031950   -0.121849
     35          6           0        2.024383    4.759810   -0.503321
     36          6           0        4.093756    2.339944   -0.451643
     37          6           0        4.937776    2.239048    0.823023
     38          6           0        6.432591    2.299879    0.561247
     39          8           0        7.195852    2.503501    1.522151
     40          8           0        6.854447    2.142581   -0.597814
     41          7           0        0.238566   -1.546725    0.036221
     42          7           0       -2.629332   -1.369575   -0.065958
     43          7           0       -2.383171    1.528245   -0.093142
     44          7           0        0.473482    1.345697   -0.009137
     45         26           0       -1.093653   -0.006419    0.109102
     46          1           0       -0.167565   -1.709785    4.045795
     47          1           0       -0.001656   -1.819129    2.309827
     48          1           0        0.721494   -0.483839    3.174189
     49          1           0       -2.322685   -0.274179    4.032590
     50          1           0        6.723937   -0.902404   -0.371147
     51          1           0        4.281228   -3.661646   -1.904212
     52          1           0        3.807992   -1.990053   -1.776504
     53          1           0        3.791667   -4.112340    0.292996
     54          1           0        4.094165   -2.471597    0.807031
     55          1           0        7.590927    1.549708   -0.764243
     56          1           0        4.671119    3.044388    1.475112
     57          1           0        4.712737    1.313535    1.310550
     58          1           0        4.397477    1.553988   -1.111133
     59          1           0        4.318058    3.274288   -0.922376
     60          1           0        3.406639   -0.349579   -0.203606
     61          1           0        1.451826   -5.563721    0.786528
     62          1           0        0.322230   -5.554313   -0.546510
     63          1           0        2.038299   -5.439501   -0.854717
     64          1           0       -1.386316   -4.501683   -0.281936
     65          1           0        3.078970    4.914411   -0.409282
     66          1           0        1.705553    5.059994   -1.479609
     67          1           0        1.511494    5.341462    0.233921
     68          1           0       -0.738376    4.494490   -0.233057
     69          1           0       -6.410815    2.629920   -0.396364
     70          1           0       -5.836240    3.995198   -1.323157
     71          1           0       -5.829826    2.396197   -2.027588
     72          1           0       -5.489995    0.297818   -0.728170
     73          1           0       -3.873950   -5.223488    0.772992
     74          1           0       -5.176600   -5.005394   -0.370950
     75          1           0       -3.561572   -5.350775   -0.941443
     76          1           0       -2.539836    5.487499    0.435948
     77          1           0       -5.112880    6.194330   -0.036911
     78          1           0       -4.388813    5.951852   -1.725589
     79          1           0       -7.449704   -1.423330    0.551529
     80          1           0       -7.745627   -1.661908   -1.262364
     81          1           0       -6.262987   -3.726139   -0.605702
 ---------------------------------------------------------------------

 SCF Done:  E(UPBE1PBE) =  -3535.16105095     A.U. after   89 cycles

 Alpha virt. eigenvalues --    0.24259   0.24747   0.24833   0.25197   0.25412
 Alpha virt. eigenvalues --    0.25609   0.25676   0.26061   0.26127   0.26545
 Alpha virt. eigenvalues --    0.27121   0.27245   0.27482   0.27788   0.28005

  Beta  occ. eigenvalues -- -256.47851 -89.10766 -30.20425 -26.04030 -26.03733
  Beta  occ. eigenvalues --  -26.03157 -19.35132 -19.34008 -19.25472 -19.25058
  Beta  occ. eigenvalues --  -14.50172 -14.49056 -14.49007 -14.48392 -10.43128
  Beta  occ. eigenvalues --  -10.42815 -10.38649 -10.37921 -10.37412 -10.37400
  Beta  occ. eigenvalues --  -10.37296 -10.37023 -10.36942 -10.36831 -10.36574
  Beta  occ. eigenvalues --  -10.35951 -10.35542 -10.34163 -10.34061 -10.33981
  Beta  occ. eigenvalues --  -10.33952 -10.33835 -10.33773 -10.33751 -10.33581
  Beta  occ. eigenvalues --  -10.33413 -10.33304 -10.33165 -10.33064 -10.32817
  Beta  occ. eigenvalues --  -10.32811 -10.32734 -10.32470 -10.31519 -10.31467
  Beta  occ. eigenvalues --  -10.31418 -10.31167 -10.30990 -10.30606  -8.08911
  Beta  occ. eigenvalues --   -6.02594  -6.02227  -6.01708  -3.51185  -2.26581
  Beta  occ. eigenvalues --   -2.25682  -2.25425  -1.25574  -1.25176  -1.10465
  Beta  occ. eigenvalues --   -1.10220  -1.10049  -1.09008  -1.08884  -1.07661
  Beta  occ. eigenvalues --   -0.97354  -0.95417  -0.94598  -0.94272  -0.93332
  Beta  occ. eigenvalues --   -0.92625  -0.92389  -0.90244  -0.89937  -0.89516
  Beta  occ. eigenvalues --   -0.88629  -0.87742  -0.87195  -0.85041  -0.83507
  Beta  occ. eigenvalues --   -0.83054  -0.82374  -0.80535  -0.79944  -0.78576
  Beta  occ. eigenvalues --   -0.77816  -0.77124  -0.75956  -0.75421  -0.74599
  Beta  occ. eigenvalues --   -0.74267  -0.73117  -0.70653  -0.69631  -0.67637
  Beta  occ. eigenvalues --   -0.66560  -0.65657  -0.64723  -0.64009  -0.63579
  Beta  occ. eigenvalues --   -0.63334  -0.61898  -0.60941  -0.60704  -0.60130
  Beta  occ. eigenvalues --   -0.59700  -0.59266  -0.59041  -0.58753  -0.58202
  Beta  occ. eigenvalues --   -0.57670  -0.57217  -0.56713  -0.56581  -0.56431
  Beta  occ. eigenvalues --   -0.56079  -0.55771  -0.55505  -0.55007  -0.54890
  Beta  occ. eigenvalues --   -0.54778  -0.54250  -0.54141  -0.53727  -0.53538
  Beta  occ. eigenvalues --   -0.53104  -0.52582  -0.52389  -0.52172  -0.52064
  Beta  occ. eigenvalues --   -0.51685  -0.51329  -0.51191  -0.51090  -0.50805
  Beta  occ. eigenvalues --   -0.50706  -0.50418  -0.49943  -0.49367  -0.49092
  Beta  occ. eigenvalues --   -0.48942  -0.48633  -0.48373  -0.48054  -0.47899
  Beta  occ. eigenvalues --   -0.47501  -0.46558  -0.46154  -0.45770  -0.44906
  Beta  occ. eigenvalues --   -0.44415  -0.44186  -0.44118  -0.43445  -0.42736
  Beta  occ. eigenvalues --   -0.42407  -0.42020  -0.40718  -0.40173  -0.39868
  Beta  occ. eigenvalues --   -0.39114  -0.37898  -0.36357  -0.35765  -0.34984
  Beta  occ. eigenvalues --   -0.34538  -0.34086  -0.32275  -0.31450  -0.30354
  Beta  occ. eigenvalues --   -0.29053
  Beta virt. eigenvalues --   -0.25057  -0.20643  -0.18666  -0.16860  -0.16454
  Beta virt. eigenvalues --   -0.14604  -0.13062  -0.12335  -0.10875  -0.09139
  Beta virt. eigenvalues --   -0.08183  -0.07007  -0.06641  -0.06469  -0.06439

 Mulliken charges and spin densities:
               1          2
     1  C   -0.296409  -0.000562
     2  S   -0.234905   0.009650
     3  C   -0.519784  -0.098109
     4  C   -0.509195  -0.068349
     5  C   -0.506823  -0.001579
     6  C   -0.487376  -0.029721
     7  C    0.318171   0.118974
     8  C    0.021707   0.005805
     9  C   -0.062789   0.024642
    10  C    0.386605   0.078835
    11  C   -0.408979  -0.001635
    12  C   -0.353568  -0.001448
    13  C   -0.171732   0.001305
    14  C    0.266845   0.000142
    15  O   -0.346794  -0.000016
    16  O   -0.348848   0.000391
    17  C    0.293503   0.115154
    18  C   -0.072811  -0.210133
    19  C    0.046624   0.185827
    20  C    0.248188   0.025946
    21  C   -0.328931   0.013168
    22  C   -0.035915  -0.384008
    23  C   -0.305412   0.967925
    24  C    0.323673   0.047186
    25  C   -0.085681   0.043432
    26  C    0.009852  -0.022951
    27  C    0.323608   0.047814
    28  C   -0.369134  -0.001661
    29  C   -0.140822   0.192985
    30  C   -0.315198  -0.112898
    31  C    0.310341   0.033097
    32  C   -0.048118   0.052071
    33  C    0.067755  -0.031487
    34  C    0.312100   0.113407
    35  C   -0.383817  -0.001918
    36  C   -0.401642   0.001446
    37  C   -0.193995  -0.000659
    38  C    0.226377  -0.000010
    39  O   -0.330946   0.000001
    40  O   -0.321546   0.000008
    41  N   -0.263258  -0.033498
    42  N   -0.155080  -0.022617
    43  N   -0.160891   0.015427
    44  N   -0.226842  -0.008938
    45  Fe   0.301347   3.955775
    46  H    0.165878  -0.000859
    47  H    0.137022   0.000589
    48  H    0.146682   0.000170
    49  H    0.169721   0.007569
    50  H    0.348805   0.000036
    51  H    0.143097   0.000195
    52  H    0.149038  -0.000043
    53  H    0.165667   0.000011
    54  H    0.145987   0.000596
    55  H    0.351246   0.000007
    56  H    0.146240  -0.000032
    57  H    0.131938   0.000123
    58  H    0.141529  -0.000646
    59  H    0.142589  -0.000102
    60  H    0.178452   0.003698
    61  H    0.165700   0.001726
    62  H    0.133597   0.000086
    63  H    0.156622   0.000970
    64  H    0.128522   0.002699
    65  H    0.142660   0.000272
    66  H    0.160808   0.002467
    67  H    0.143781   0.001401
    68  H    0.134125   0.001460
    69  H    0.141984   0.001653
    70  H    0.157799   0.000184
    71  H    0.156878   0.001388
    72  H    0.168529  -0.004347
    73  H    0.167829  -0.007315
    74  H    0.121854  -0.000705
    75  H    0.154657  -0.003359
    76  H    0.165363  -0.010197
    77  H    0.177098   0.011945
    78  H    0.181690   0.011822
    79  H    0.183013  -0.050884
    80  H    0.180441  -0.052227
    81  H    0.143700   0.061438
 Sum of Mulliken charges =   1.00000   5.00000

 Dipole moment (field-independent basis, Debye):
    X=            -13.1774    Y=             -1.4044    Z=             -1.1327  Tot=             13.3003
 Quadrupole moment (field-independent basis, Debye-Ang):
   XX=           -185.6068   YY=           -201.2311   ZZ=           -267.9715
   XY=             12.4993   XZ=             -4.1248   YZ=            -13.8553

 Summary of Natural Population Analysis:

                                       Natural Population
                Natural  -----------------------------------------------
    Atom  No    Charge         Core      Valence    Rydberg      Total
 -----------------------------------------------------------------------
      C    1   -0.37011      0.99965     2.36161    0.00886     3.37011
      S    2    0.00348      4.99966     2.98047    0.01639     7.99652
      C    3   -0.15901      0.99951     2.15128    0.00822     3.15901
      C    4   -0.13353      0.99949     2.12611    0.00793     3.13353
      C    5   -0.12205      0.99951     2.11474    0.00780     3.12205
      C    6   -0.12775      0.99950     2.12056    0.00769     3.12775
      C    7    0.14572      0.99954     1.84471    0.01003     2.85428
      C    8   -0.00638      0.99942     1.99750    0.00946     3.00638
      C    9    0.01248      0.99942     1.97992    0.00818     2.98752
      C   10    0.11730      0.99952     1.87273    0.01044     2.88270
      C   11   -0.32058      0.99970     2.31457    0.00631     3.32058
      C   12   -0.21154      0.99965     2.20485    0.00704     3.21154
      C   13   -0.24724      0.99962     2.23897    0.00865     3.24724
      C   14    0.37843      0.99975     1.60354    0.01827     2.62157
      O   15   -0.33460      0.99980     3.32058    0.01421     4.33460
      O   16   -0.28838      0.99989     3.27645    0.01203     4.28838
      C   17    0.11473      0.99954     1.87561    0.01012     2.88527
      C   18   -0.05068      0.99945     2.04276    0.00848     3.05068
      C   19    0.01296      0.99934     1.97687    0.01082     2.98704
      C   20    0.11193      0.99956     1.87817    0.01034     2.88807
      C   21   -0.31458      0.99969     2.31081    0.00408     3.31458
      C   22   -0.19840      0.99962     2.18919    0.00960     3.19840
      C   23    0.29790      0.99966     1.69495    0.00749     2.70210
      C   24    0.11349      0.99954     1.87733    0.00964     2.88651
      C   25    0.03500      0.99945     1.95681    0.00874     2.96500
      C   26   -0.06056      0.99943     2.05045    0.01068     3.06056
      C   27    0.13044      0.99955     1.86037    0.00963     2.86956
      C   28   -0.32439      0.99969     2.32105    0.00365     3.32439
      C   29   -0.01872      0.99961     2.00865    0.01047     3.01872
      C   30   -0.19709      0.99972     2.18983    0.00754     3.19709
      C   31    0.10638      0.99954     1.88419    0.00989     2.89362
      C   32    0.02734      0.99942     1.96512    0.00811     2.97266
      C   33   -0.02396      0.99942     2.01517    0.00938     3.02396
      C   34    0.14541      0.99955     1.84517    0.00988     2.85459
      C   35   -0.32165      0.99970     2.31844    0.00351     3.32165
      C   36   -0.21575      0.99966     2.20953    0.00655     3.21575
      C   37   -0.24907      0.99962     2.24120    0.00825     3.24907
      C   38    0.37751      0.99977     1.60397    0.01875     2.62249
      O   39   -0.28661      0.99989     3.27438    0.01234     4.28661
      O   40   -0.33163      0.99980     3.31736    0.01448     4.33163
      N   41   -0.27468      0.99971     2.75647    0.01850     3.77468
      N   42   -0.23220      0.99971     2.71299    0.01950     3.73220
      N   43   -0.23815      0.99970     2.72049    0.01796     3.73815
      N   44   -0.25360      0.99971     2.73431    0.01958     3.75360
     Fe   45    2.40001      8.99543     1.59192    0.01263    10.59999
      H   46    0.11990      0.00000     0.37967    0.00042     0.38010
      H   47    0.11831      0.00000     0.38091    0.00078     0.38169
      H   48    0.11418      0.00000     0.38515    0.00067     0.38582
      H   49    0.08583      0.00000     0.41148    0.00269     0.41417
      H   50    0.25655      0.00000     0.24185    0.00159     0.24345
      H   51    0.12275      0.00000     0.37663    0.00062     0.37725
      H   52    0.11057      0.00000     0.38876    0.00068     0.38943
      H   53    0.11998      0.00000     0.37938    0.00064     0.38002
      H   54    0.11183      0.00000     0.38734    0.00083     0.38817
      H   55    0.25903      0.00000     0.23958    0.00140     0.24097
      H   56    0.12180      0.00000     0.37753    0.00066     0.37820
      H   57    0.11644      0.00000     0.38288    0.00067     0.38356
      H   58    0.11328      0.00000     0.38561    0.00111     0.38672
      H   59    0.11211      0.00000     0.38688    0.00100     0.38789
      H   60    0.11702      0.00000     0.38178    0.00119     0.38298
      H   61    0.11924      0.00000     0.38014    0.00062     0.38076
      H   62    0.11075      0.00000     0.38881    0.00044     0.38925
      H   63    0.11766      0.00000     0.38176    0.00057     0.38234
      H   64    0.11472      0.00000     0.38394    0.00134     0.38528
      H   65    0.11475      0.00000     0.38463    0.00063     0.38525
      H   66    0.11796      0.00000     0.38134    0.00070     0.38204
      H   67    0.11508      0.00000     0.38427    0.00065     0.38492
      H   68    0.11466      0.00000     0.38425    0.00109     0.38534
      H   69    0.11417      0.00000     0.38497    0.00085     0.38583
      H   70    0.11908      0.00000     0.38006    0.00086     0.38092
      H   71    0.11971      0.00000     0.37966    0.00063     0.38029
      H   72    0.11553      0.00000     0.38335    0.00112     0.38447
      H   73    0.11799      0.00000     0.38128    0.00073     0.38201
      H   74    0.10736      0.00000     0.39190    0.00074     0.39264
      H   75    0.11698      0.00000     0.38233    0.00069     0.38302
      H   76    0.11323      0.00000     0.38566    0.00111     0.38677
      H   77    0.10886      0.00000     0.39022    0.00093     0.39114
      H   78    0.11036      0.00000     0.38870    0.00094     0.38964
      H   79    0.08918      0.00000     0.40984    0.00098     0.41082
      H   80    0.08828      0.00000     0.41088    0.00084     0.41172
      H   81    0.13722      0.00000     0.36180    0.00098     0.36278
 =======================================================================
   * Total *    3.00000     56.97811   113.51735    0.50454   171.00000

 Normal termination of Gaussian 16 at Thu Dec  1 22:12:26 2022.
