 Gaussian 16, Revision A.03,
 Gaussian 16:  ES64L-G16RevA.03 25-Dec-2016

 ----------------------------------------------------------------------
 # PBE1PBE/def2TZVP empiricaldispersion=GD3BJ scf=maxcycle=999 geom=che
 ck pop=nbo guess=read
 ----------------------------------------------------------------------

 ----------
 1cpo_III_D
 ----------
 Structure from the checkpoint file:  "1cpo_III_D.chk"
 Charge =  1 Multiplicity = 2

                         Standard orientation:
 ---------------------------------------------------------------------
 Center     Atomic      Atomic             Coordinates (Angstroms)
 Number     Number       Type             X           Y           Z
 ---------------------------------------------------------------------
      1          6           0       -0.115849   -1.148897    3.136053
      2         16           0       -1.612746   -0.207226    2.933680
      3          6           0        2.342646   -0.261906   -0.131958
      4          6           0       -1.321712   -3.437900   -0.186582
      5          6           0       -4.449186    0.212277   -0.495150
      6          6           0       -0.809233    3.428447   -0.174485
      7          6           0        1.613531   -1.453944   -0.057399
      8          6           0        2.185316   -2.782506   -0.041826
      9          6           0        1.164868   -3.659898   -0.102025
     10          6           0       -0.052567   -2.893977   -0.084100
     11          6           0        1.250531   -5.163631   -0.185227
     12          6           0        3.653789   -3.080560    0.045366
     13          6           0        4.330407   -2.787000   -1.289823
     14          6           0        5.769333   -2.392901   -1.116145
     15          8           0        6.041716   -1.178619   -0.987492
     16          8           0        6.640275   -3.291130   -1.124667
     17          6           0       -2.515407   -2.735933   -0.177394
     18          6           0       -3.831718   -3.336575   -0.249807
     19          6           0       -4.719520   -2.321114   -0.354182
     20          6           0       -3.947882   -1.078272   -0.330398
     21          6           0       -4.133960   -4.843753   -0.192977
     22          6           0       -6.065936   -2.685291   -0.455015
     23          6           0       -7.169424   -1.862086   -0.383263
     24          6           0       -3.727715    1.408606   -0.386405
     25          6           0       -4.290309    2.723905   -0.590396
     26          6           0       -3.315342    3.623795   -0.286635
     27          6           0       -2.088852    2.877896   -0.155519
     28          6           0       -5.695986    2.953308   -1.123921
     29          6           0       -3.322984    5.011859   -0.116632
     30          6           0       -4.356348    5.779888   -0.669997
     31          6           0        0.383121    2.717050   -0.124147
     32          6           0        1.706728    3.282583   -0.296643
     33          6           0        2.585143    2.251579   -0.281039
     34          6           0        1.814914    1.031950   -0.121849
     35          6           0        2.024383    4.759810   -0.503321
     36          6           0        4.093756    2.339944   -0.451643
     37          6           0        4.937776    2.239048    0.823023
     38          6           0        6.432591    2.299879    0.561247
     39          8           0        7.195852    2.503501    1.522151
     40          8           0        6.854447    2.142581   -0.597814
     41          7           0        0.238566   -1.546725    0.036221
     42          7           0       -2.629332   -1.369575   -0.065958
     43          7           0       -2.383171    1.528245   -0.093142
     44          7           0        0.473482    1.345697   -0.009137
     45         26           0       -1.093653   -0.006419    0.109102
     46          1           0       -0.167565   -1.709785    4.045795
     47          1           0       -0.001656   -1.819129    2.309827
     48          1           0        0.721494   -0.483839    3.174189
     49          1           0       -2.322685   -0.274179    4.032590
     50          1           0        6.723937   -0.902404   -0.371147
     51          1           0        4.281228   -3.661646   -1.904212
     52          1           0        3.807992   -1.990053   -1.776504
     53          1           0        3.791667   -4.112340    0.292996
     54          1           0        4.094165   -2.471597    0.807031
     55          1           0        7.590927    1.549708   -0.764243
     56          1           0        4.671119    3.044388    1.475112
     57          1           0        4.712737    1.313535    1.310550
     58          1           0        4.397477    1.553988   -1.111133
     59          1           0        4.318058    3.274288   -0.922376
     60          1           0        3.406639   -0.349579   -0.203606
     61          1           0        1.451826   -5.563721    0.786528
     62          1           0        0.322230   -5.554313   -0.546510
     63          1           0        2.038299   -5.439501   -0.854717
     64          1           0       -1.386316   -4.501683   -0.281936
     65          1           0        3.078970    4.914411   -0.409282
     66          1           0        1.705553    5.059994   -1.479609
     67          1           0        1.511494    5.341462    0.233921
     68          1           0       -0.738376    4.494490   -0.233057
     69          1           0       -6.410815    2.629920   -0.396364
     70          1           0       -5.836240    3.995198   -1.323157
     71          1           0       -5.829826    2.396197   -2.027588
     72          1           0       -5.489995    0.297818   -0.728170
     73          1           0       -3.873950   -5.223488    0.772992
     74          1           0       -5.176600   -5.005394   -0.370950
     75          1           0       -3.561572   -5.350775   -0.941443
     76          1           0       -2.539836    5.487499    0.435948
     77          1           0       -5.112880    6.194330   -0.036911
     78          1           0       -4.388813    5.951852   -1.725589
     79          1           0       -7.449704   -1.423330    0.551529
     80          1           0       -7.745627   -1.661908   -1.262364
     81          1           0       -6.262987   -3.726139   -0.605702
 ---------------------------------------------------------------------

 SCF Done:  E(UPBE1PBE) =  -3535.15852778     A.U. after    1 cycles

 Alpha virt. eigenvalues --    0.25285   0.25499   0.25738   0.25945   0.26125
 Alpha virt. eigenvalues --    0.26311   0.26770   0.27045   0.27224   0.27523
 Alpha virt. eigenvalues --    0.27878   0.28031   0.28342   0.28545   0.28692

  Beta  occ. eigenvalues -- -256.45422 -89.10047 -30.19794 -26.03384 -26.03255
  Beta  occ. eigenvalues --  -26.01550 -19.35190 -19.34184 -19.25510 -19.25243
  Beta  occ. eigenvalues --  -14.50890 -14.50148 -14.49739 -14.49487 -10.43164
  Beta  occ. eigenvalues --  -10.43009 -10.38274 -10.38173 -10.38035 -10.37602
  Beta  occ. eigenvalues --  -10.37556 -10.37547 -10.37279 -10.37242 -10.37002
  Beta  occ. eigenvalues --  -10.35537 -10.35511 -10.35461 -10.34438 -10.34252
  Beta  occ. eigenvalues --  -10.34242 -10.34104 -10.33757 -10.33751 -10.33720
  Beta  occ. eigenvalues --  -10.33645 -10.33480 -10.33300 -10.33163 -10.33105
  Beta  occ. eigenvalues --  -10.32487 -10.32237 -10.32143 -10.31789 -10.31768
  Beta  occ. eigenvalues --  -10.31735 -10.31490 -10.31048 -10.30930  -8.08186
  Beta  occ. eigenvalues --   -6.01870  -6.01501  -6.00979  -3.52272  -2.29026
  Beta  occ. eigenvalues --   -2.28537  -2.24560  -1.25629  -1.25352  -1.10511
  Beta  occ. eigenvalues --   -1.10262  -1.10228  -1.09653  -1.09124  -1.08236
  Beta  occ. eigenvalues --   -0.97084  -0.95797  -0.95283  -0.94440  -0.93685
  Beta  occ. eigenvalues --   -0.92894  -0.92625  -0.90247  -0.89637  -0.89394
  Beta  occ. eigenvalues --   -0.89054  -0.88349  -0.87350  -0.85762  -0.83790
  Beta  occ. eigenvalues --   -0.82923  -0.82801  -0.80815  -0.79999  -0.78845
  Beta  occ. eigenvalues --   -0.78124  -0.77464  -0.75620  -0.75358  -0.75058
  Beta  occ. eigenvalues --   -0.74640  -0.73807  -0.70949  -0.69879  -0.67665
  Beta  occ. eigenvalues --   -0.66871  -0.66399  -0.65349  -0.64259  -0.63834
  Beta  occ. eigenvalues --   -0.63346  -0.61673  -0.61379  -0.60465  -0.60074
  Beta  occ. eigenvalues --   -0.59866  -0.59578  -0.59117  -0.58472  -0.58198
  Beta  occ. eigenvalues --   -0.58116  -0.57272  -0.56969  -0.56715  -0.56558
  Beta  occ. eigenvalues --   -0.56258  -0.56165  -0.55513  -0.55461  -0.55130
  Beta  occ. eigenvalues --   -0.55120  -0.54940  -0.54660  -0.54479  -0.53258
  Beta  occ. eigenvalues --   -0.52809  -0.52573  -0.52400  -0.52178  -0.52011
  Beta  occ. eigenvalues --   -0.51862  -0.51665  -0.51535  -0.51266  -0.50912
  Beta  occ. eigenvalues --   -0.50625  -0.50215  -0.50059  -0.49868  -0.49098
  Beta  occ. eigenvalues --   -0.48882  -0.48629  -0.48505  -0.48270  -0.48040
  Beta  occ. eigenvalues --   -0.47875  -0.46957  -0.46330  -0.46009  -0.44959
  Beta  occ. eigenvalues --   -0.44590  -0.44488  -0.44275  -0.43497  -0.43015
  Beta  occ. eigenvalues --   -0.42085  -0.41525  -0.40850  -0.40608  -0.40287
  Beta  occ. eigenvalues --   -0.39153  -0.38850  -0.36623  -0.35931  -0.35401
  Beta  occ. eigenvalues --   -0.35090  -0.34733  -0.33624  -0.33246  -0.32391
  Beta  occ. eigenvalues --   -0.31386  -0.30904  -0.29082
  Beta virt. eigenvalues --   -0.22100  -0.19918  -0.17993  -0.17189  -0.11988
  Beta virt. eigenvalues --   -0.11534  -0.11085  -0.09248  -0.08315  -0.07836
  Beta virt. eigenvalues --   -0.07285  -0.06683  -0.06085  -0.05258  -0.05050

 Mulliken charges and spin densities:
               1          2
     1  C   -0.293838  -0.001765
     2  S   -0.240775   0.009400
     3  C   -0.512433   0.017923
     4  C   -0.506580   0.007270
     5  C   -0.485049   0.059841
     6  C   -0.485775   0.057563
     7  C    0.313333  -0.056336
     8  C    0.018722  -0.006565
     9  C   -0.062727   0.002769
    10  C    0.385556  -0.048249
    11  C   -0.408459   0.000095
    12  C   -0.353938   0.000606
    13  C   -0.171595  -0.001305
    14  C    0.266911  -0.000103
    15  O   -0.347409   0.000012
    16  O   -0.348400  -0.000394
    17  C    0.298480  -0.057833
    18  C   -0.087933  -0.055518
    19  C    0.063772   0.037194
    20  C    0.233643  -0.067419
    21  C   -0.334395   0.002807
    22  C   -0.096314  -0.213065
    23  C   -0.346413   0.149842
    24  C    0.320025  -0.122079
    25  C   -0.072921   0.240296
    26  C   -0.035165  -0.165045
    27  C    0.330238  -0.101438
    28  C   -0.368430  -0.023455
    29  C   -0.041975   0.374931
    30  C   -0.301207  -0.989374
    31  C    0.292189  -0.095849
    32  C   -0.046320   0.017763
    33  C    0.069483  -0.020814
    34  C    0.307244  -0.048983
    35  C   -0.385021  -0.001598
    36  C   -0.401164   0.001973
    37  C   -0.194336  -0.001708
    38  C    0.226398  -0.000098
    39  O   -0.330138  -0.000397
    40  O   -0.321753  -0.000012
    41  N   -0.204353  -0.045697
    42  N   -0.133840  -0.041938
    43  N   -0.094114   0.022928
    44  N   -0.187251  -0.030113
    45  Fe   0.137187   2.148765
    46  H    0.164390  -0.000551
    47  H    0.133450   0.000816
    48  H    0.142884   0.000020
    49  H    0.165210   0.008651
    50  H    0.348638  -0.000020
    51  H    0.143646  -0.000162
    52  H    0.148817   0.000137
    53  H    0.166372   0.000008
    54  H    0.146055  -0.000520
    55  H    0.351830  -0.000022
    56  H    0.146012   0.000016
    57  H    0.133633   0.000051
    58  H    0.143023  -0.000780
    59  H    0.142672  -0.000212
    60  H    0.178725  -0.000813
    61  H    0.166357  -0.000212
    62  H    0.135560  -0.000016
    63  H    0.156565  -0.000233
    64  H    0.130713  -0.000394
    65  H    0.144335   0.000045
    66  H    0.160695   0.000356
    67  H    0.142155   0.000378
    68  H    0.129480  -0.001181
    69  H    0.154245   0.008836
    70  H    0.157102   0.004181
    71  H    0.161510   0.007912
    72  H    0.174384  -0.002148
    73  H    0.164365  -0.002148
    74  H    0.125340   0.000279
    75  H    0.147508  -0.000841
    76  H    0.176322  -0.059994
    77  H    0.185930   0.050760
    78  H    0.188534   0.050236
    79  H    0.174186  -0.014585
    80  H    0.171203  -0.014823
    81  H    0.134996   0.012144
 Sum of Mulliken charges =   1.00000   1.00000

 Dipole moment (field-independent basis, Debye):
    X=            -11.7471    Y=              2.5461    Z=             -1.3911  Tot=             12.1001
 Quadrupole moment (field-independent basis, Debye-Ang):
   XX=           -197.4780   YY=           -188.7722   ZZ=           -268.5803
   XY=             -6.4099   XZ=             -4.3965   YZ=            -15.1206

 Summary of Natural Population Analysis:

                                       Natural Population
                Natural  -----------------------------------------------
    Atom  No    Charge         Core      Valence    Rydberg      Total
 -----------------------------------------------------------------------
      C    1   -0.36993      0.99965     2.36139    0.00888     3.36993
      S    2    0.00027      4.99966     2.98361    0.01646     7.99973
      C    3   -0.12293      0.99951     2.11496    0.00846     3.12293
      C    4   -0.10506      0.99949     2.09749    0.00808     3.10506
      C    5   -0.08607      0.99951     2.07841    0.00815     3.08607
      C    6   -0.10198      0.99950     2.09439    0.00809     3.10198
      C    7    0.08086      0.99954     1.90942    0.01017     2.91914
      C    8   -0.01805      0.99942     2.00904    0.00959     3.01805
      C    9   -0.00002      0.99942     1.99229    0.00831     3.00002
      C   10    0.06360      0.99953     1.92606    0.01081     2.93640
      C   11   -0.32043      0.99970     2.31441    0.00632     3.32043
      C   12   -0.21137      0.99965     2.20466    0.00706     3.21137
      C   13   -0.24837      0.99962     2.24007    0.00868     3.24837
      C   14    0.37831      0.99975     1.60365    0.01828     2.62169
      O   15   -0.33478      0.99980     3.32077    0.01421     4.33478
      O   16   -0.28858      0.99989     3.27665    0.01203     4.28858
      C   17    0.05815      0.99954     1.93214    0.01018     2.94185
      C   18   -0.00027      0.99944     1.99237    0.00846     3.00027
      C   19   -0.04887      0.99935     2.03835    0.01117     3.04887
      C   20    0.07207      0.99956     1.91811    0.01025     2.92793
      C   21   -0.31774      0.99969     2.31415    0.00390     3.31774
      C   22   -0.17002      0.99961     2.15943    0.01099     3.17002
      C   23   -0.10079      0.99968     2.09345    0.00766     3.10079
      C   24    0.02971      0.99955     1.96075    0.00999     2.97029
      C   25    0.13329      0.99945     1.85857    0.00869     2.86671
      C   26   -0.13599      0.99945     2.12570    0.01083     3.13599
      C   27    0.06643      0.99956     1.92393    0.01008     2.93357
      C   28   -0.33617      0.99969     2.33294    0.00354     3.33617
      C   29    0.11569      0.99961     1.87568    0.00902     2.88431
      C   30   -0.60996      0.99972     2.60034    0.00990     3.60996
      C   31    0.05574      0.99955     1.93458    0.01013     2.94426
      C   32    0.00923      0.99942     1.98335    0.00800     2.99077
      C   33   -0.02319      0.99942     2.01421    0.00957     3.02319
      C   34    0.08437      0.99955     1.90610    0.00998     2.91563
      C   35   -0.32129      0.99969     2.31802    0.00358     3.32129
      C   36   -0.21639      0.99966     2.21016    0.00657     3.21639
      C   37   -0.24937      0.99962     2.24147    0.00827     3.24937
      C   38    0.37739      0.99977     1.60410    0.01874     2.62261
      O   39   -0.28634      0.99989     3.27411    0.01234     4.28634
      O   40   -0.33166      0.99980     3.31740    0.01447     4.33166
      N   41   -0.26185      0.99970     2.74107    0.02108     3.76185
      N   42   -0.23823      0.99969     2.71862    0.01991     3.73823
      N   43   -0.20329      0.99969     2.68325    0.02034     3.70329
      N   44   -0.25130      0.99970     2.73182    0.01978     3.75130
     Fe   45    1.39030      8.99576     2.60247    0.01147    11.60970
      H   46    0.11911      0.00000     0.38046    0.00043     0.38089
      H   47    0.11762      0.00000     0.38157    0.00082     0.38238
      H   48    0.11267      0.00000     0.38667    0.00067     0.38733
      H   49    0.08323      0.00000     0.41406    0.00271     0.41677
      H   50    0.25646      0.00000     0.24194    0.00160     0.24354
      H   51    0.12286      0.00000     0.37652    0.00062     0.37714
      H   52    0.11046      0.00000     0.38885    0.00069     0.38954
      H   53    0.12023      0.00000     0.37914    0.00064     0.37977
      H   54    0.11128      0.00000     0.38788    0.00084     0.38872
      H   55    0.25922      0.00000     0.23939    0.00139     0.24078
      H   56    0.12176      0.00000     0.37758    0.00066     0.37824
      H   57    0.11683      0.00000     0.38250    0.00067     0.38317
      H   58    0.11383      0.00000     0.38505    0.00112     0.38617
      H   59    0.11219      0.00000     0.38681    0.00100     0.38781
      H   60    0.11564      0.00000     0.38315    0.00121     0.38436
      H   61    0.11868      0.00000     0.38069    0.00063     0.38132
      H   62    0.11130      0.00000     0.38826    0.00044     0.38870
      H   63    0.11721      0.00000     0.38220    0.00058     0.38279
      H   64    0.11378      0.00000     0.38483    0.00139     0.38622
      H   65    0.11517      0.00000     0.38421    0.00063     0.38483
      H   66    0.11678      0.00000     0.38251    0.00071     0.38322
      H   67    0.11411      0.00000     0.38524    0.00066     0.38589
      H   68    0.11179      0.00000     0.38697    0.00123     0.38821
      H   69    0.12197      0.00000     0.37731    0.00072     0.37803
      H   70    0.11847      0.00000     0.38068    0.00085     0.38153
      H   71    0.12405      0.00000     0.37537    0.00058     0.37595
      H   72    0.11750      0.00000     0.38090    0.00160     0.38250
      H   73    0.11922      0.00000     0.38010    0.00067     0.38078
      H   74    0.10985      0.00000     0.38934    0.00081     0.39015
      H   75    0.11526      0.00000     0.38403    0.00070     0.38474
      H   76    0.08881      0.00000     0.41000    0.00119     0.41119
      H   77    0.12602      0.00000     0.37326    0.00072     0.37398
      H   78    0.12772      0.00000     0.37154    0.00074     0.37228
      H   79    0.09936      0.00000     0.39935    0.00129     0.40064
      H   80    0.10015      0.00000     0.39881    0.00104     0.39985
      H   81    0.11429      0.00000     0.38446    0.00125     0.38571
 =======================================================================
   * Total *    1.00000     56.97848   115.50557    0.51595   173.00000

 Normal termination of Gaussian 16 at Mon Nov  7 11:48:56 2022.
