 Gaussian 16, Revision A.03,
 Gaussian 16:  ES64L-G16RevA.03 25-Dec-2016

 ----------------------------------------------------------------------
 # PBE1PBE/def2TZVP empiricaldispersion=GD3BJ scf=qc scf=maxcycle=999 g
 eom=check pop=nbo
 ----------------------------------------------------------------------

 ----------
 1cry_III_D
 ----------
 Structure from the checkpoint file:  "1cry_III_D.chk"
 Charge =  1 Multiplicity = 2

                         Standard orientation:
 ---------------------------------------------------------------------
 Center     Atomic      Atomic             Coordinates (Angstroms)
 Number     Number       Type             X           Y           Z
 ---------------------------------------------------------------------
      1          6           0        2.508484   -1.500272    4.973537
      2          6           0        1.730312   -1.104455    3.784603
      3          7           0        0.376573   -1.253928    3.687894
      4          6           0        2.089705   -0.580736    2.600872
      5          6           0       -0.055828   -0.831832    2.524567
      6          7           0        0.978015   -0.412111    1.843546
      7          6           0       -0.716279    3.046624   -2.668771
      8          6           0        0.562144    2.328581   -2.904054
      9         16           0        0.445406    0.661489   -2.146629
     10          6           0        1.427062   -0.284806   -3.317838
     11         26           0        0.876349   -0.093247   -0.001944
     12          6           0       -2.512300   -0.003416    0.034222
     13          6           0        0.779031   -3.425162   -0.689223
     14          6           0        4.257602   -0.067235   -0.612602
     15          6           0        0.991796    3.132095    1.065518
     16          7           0       -0.578127   -1.464092   -0.258625
     17          6           0       -1.940039   -1.229948   -0.247969
     18          6           0       -2.643792   -2.436396   -0.586990
     19          6           0       -1.733325   -3.394129   -0.786043
     20          6           0       -0.436158   -2.798140   -0.586676
     21          6           0       -1.976408   -4.881460   -1.149380
     22          6           0       -4.196557   -2.561188   -0.603618
     23          6           0       -4.649887   -3.362070    0.644156
     24          6           0       -6.109472   -3.620695    0.833856
     25          8           0       -6.821269   -3.435270   -0.194234
     26          8           0       -6.494473   -3.990472    1.988322
     27          7           0        2.238628   -1.434957   -0.646420
     28          6           0        2.013015   -2.805946   -0.684939
     29          6           0        3.276597   -3.498166   -0.740963
     30          6           0        4.233452   -2.573120   -0.746795
     31          6           0        3.608856   -1.274430   -0.686484
     32          6           0        3.381730   -5.038307   -0.807339
     33          6           0        5.776154   -2.835314   -0.820620
     34          6           0        6.231248   -3.046066   -2.097514
     35          7           0        2.337045    1.250590    0.211001
     36          6           0        3.673797    1.063261   -0.064988
     37          6           0        4.378238    2.291862    0.248563
     38          6           0        3.481013    3.178200    0.676564
     39          6           0        2.189273    2.545370    0.682670
     40          6           0        5.901408    2.499531    0.045551
     41          6           0        3.754788    4.647349    1.155890
     42          6           0        3.873093    5.576407    0.166877
     43          7           0       -0.498389    1.295150    0.507306
     44          6           0       -0.274824    2.627649    0.843967
     45          6           0       -1.539937    3.323260    0.897952
     46          6           0       -2.509574    2.449285    0.615634
     47          6           0       -1.869029    1.178571    0.363212
     48          6           0       -1.695203    4.819050    1.235815
     49          6           0       -4.041387    2.636259    0.548715
     50          6           0       -4.708314    2.807495   -0.811968
     51          6           0       -6.097624    3.396124   -0.882576
     52          8           0       -6.419073    3.921893   -1.977235
     53          8           0       -6.828310    3.315588    0.139882
     54          1           0        0.816620   -0.564402   -4.150957
     55          1           0        2.246535    0.311841   -3.660439
     56          1           0        1.802396   -1.165174   -2.839322
     57          1           0       -1.503691    2.336044   -2.527491
     58          1           0       -0.626483    3.657886   -1.795161
     59          1           0       -0.939800    3.663308   -3.514135
     60          1           0        0.733478    2.234478   -3.956046
     61          1           0        1.367574    2.871787   -2.455600
     62          1           0        2.516320   -2.567080    5.055750
     63          1           0        3.512377   -1.142521    4.878078
     64          1           0        2.061239   -1.078338    5.849233
     65          1           0        3.088560   -0.336922    2.304656
     66          1           0       -0.205782   -1.633703    4.406666
     67          1           0       -1.072842   -0.831009    2.192030
     68          1           0       -7.529161   -4.048535   -0.404933
     69          1           0       -4.155473   -4.310562    0.615565
     70          1           0       -4.300484   -2.837135    1.508598
     71          1           0       -4.505643   -3.073800   -1.490520
     72          1           0       -4.634992   -1.585373   -0.582169
     73          1           0       -7.141445    3.554986   -2.492170
     74          1           0       -4.068531    3.426316   -1.405801
     75          1           0       -4.746273    1.842618   -1.272914
     76          1           0       -4.488463    1.785718    1.019463
     77          1           0       -4.284543    3.497706    1.134960
     78          1           0       -3.580733    0.037849   -0.006381
     79          1           0       -2.711711   -4.943759   -1.924202
     80          1           0       -1.061507   -5.319568   -1.489848
     81          1           0       -2.323784   -5.407629   -0.284871
     82          1           0       -2.698153    5.010159    1.555922
     83          1           0       -1.014868    5.080224    2.019289
     84          1           0       -1.480376    5.405164    0.366781
     85          1           0        1.055668    4.066524    1.582879
     86          1           0        2.922857    6.037254   -0.005089
     87          1           0        4.582888    6.321361    0.460366
     88          1           0        4.206469    5.100435   -0.731572
     89          1           0        3.842708    4.902340    2.191337
     90          1           0        6.159523    2.277792   -0.968899
     91          1           0        6.155082    3.515778    0.264161
     92          1           0        6.440685    1.848323    0.701302
     93          1           0        5.254989    0.003540   -0.993537
     94          1           0        7.224186   -3.443131   -2.061279
     95          1           0        5.587371   -3.740519   -2.595568
     96          1           0        6.237144   -2.118927   -2.631628
     97          1           0        6.412037   -2.848696    0.039830
     98          1           0        2.781312   -5.402323   -1.614736
     99          1           0        4.401758   -5.319652   -0.966364
    100          1           0        3.034924   -5.459477    0.113118
    101          1           0        0.770093   -4.491191   -0.780891
 ---------------------------------------------------------------------

 SCF Done:  E(UPBE1PBE) =  -3880.35537621     a.u. after   25 cycles

 Alpha virt. eigenvalues --    0.95655   0.95776   0.96189   0.96546   0.96706
 Alpha virt. eigenvalues --    0.96826   0.97259   0.97374   0.97546   0.98137
 Alpha virt. eigenvalues --    0.98333   0.98843   0.99034   0.99191   0.99555

  Beta  occ. eigenvalues -- -256.50262 -89.13523 -30.26786 -26.09812 -26.09556
  Beta  occ. eigenvalues --  -26.08982 -19.33868 -19.33022 -19.25294 -19.24964
  Beta  occ. eigenvalues --  -14.55125 -14.51311 -14.48893 -14.48625 -14.48609
  Beta  occ. eigenvalues --  -14.48489 -10.42761 -10.42742 -10.38904 -10.36139
  Beta  occ. eigenvalues --  -10.35506 -10.35335 -10.35326 -10.35252 -10.35142
  Beta  occ. eigenvalues --  -10.35126 -10.35042 -10.34934 -10.34667 -10.34005
  Beta  occ. eigenvalues --  -10.32523 -10.32304 -10.32202 -10.32199 -10.32194
  Beta  occ. eigenvalues --  -10.32191 -10.32137 -10.32083 -10.31971 -10.31928
  Beta  occ. eigenvalues --  -10.31911 -10.31905 -10.31811 -10.31767 -10.31702
  Beta  occ. eigenvalues --  -10.31300 -10.30784 -10.30745 -10.30745 -10.30516
  Beta  occ. eigenvalues --  -10.29943 -10.29942 -10.29921 -10.29855 -10.29405
  Beta  occ. eigenvalues --  -10.27763 -10.27653  -8.11400  -6.05024  -6.04769
  Beta  occ. eigenvalues --   -6.04255  -3.59228  -2.34621  -2.34353  -2.34095
  Beta  occ. eigenvalues --   -1.23512  -1.23509  -1.18774  -1.09442  -1.08726
  Beta  occ. eigenvalues --   -1.08698  -1.07823  -1.07459  -1.06607  -1.03092
  Beta  occ. eigenvalues --   -0.94559  -0.94073  -0.92747  -0.92640  -0.92351
  Beta  occ. eigenvalues --   -0.92100  -0.91517  -0.91185  -0.90969  -0.88451
  Beta  occ. eigenvalues --   -0.87892  -0.87800  -0.87237  -0.86859  -0.85990
  Beta  occ. eigenvalues --   -0.83856  -0.83329  -0.81846  -0.81308  -0.80758
  Beta  occ. eigenvalues --   -0.79097  -0.78517  -0.78171  -0.76766  -0.76206
  Beta  occ. eigenvalues --   -0.75991  -0.75829  -0.73635  -0.73401  -0.72838
  Beta  occ. eigenvalues --   -0.71350  -0.71064  -0.69615  -0.69188  -0.68413
  Beta  occ. eigenvalues --   -0.67923  -0.65598  -0.64835  -0.64339  -0.63446
  Beta  occ. eigenvalues --   -0.62343  -0.62118  -0.61550  -0.59868  -0.59738
  Beta  occ. eigenvalues --   -0.59503  -0.59062  -0.59018  -0.58956  -0.58786
  Beta  occ. eigenvalues --   -0.58535  -0.58406  -0.57781  -0.57307  -0.56708
  Beta  occ. eigenvalues --   -0.56170  -0.56040  -0.55502  -0.55128  -0.55047
  Beta  occ. eigenvalues --   -0.54649  -0.54297  -0.54167  -0.54122  -0.53766
  Beta  occ. eigenvalues --   -0.53660  -0.53637  -0.53386  -0.53037  -0.52991
  Beta  occ. eigenvalues --   -0.52904  -0.52777  -0.52426  -0.52055  -0.51928
  Beta  occ. eigenvalues --   -0.51491  -0.51129  -0.51070  -0.50729  -0.50576
  Beta  occ. eigenvalues --   -0.50157  -0.49914  -0.49707  -0.49334  -0.49270
  Beta  occ. eigenvalues --   -0.49086  -0.48800  -0.48478  -0.48270  -0.48163
  Beta  occ. eigenvalues --   -0.48070  -0.47600  -0.47404  -0.47049  -0.46756
  Beta  occ. eigenvalues --   -0.46667  -0.46644  -0.46288  -0.45904  -0.45479
  Beta  occ. eigenvalues --   -0.45038  -0.44976  -0.44403  -0.44028  -0.43755
  Beta  occ. eigenvalues --   -0.43566  -0.43198  -0.42970  -0.42523  -0.42424
  Beta  occ. eigenvalues --   -0.42070  -0.41510  -0.40281  -0.39226  -0.38643
  Beta  occ. eigenvalues --   -0.38459  -0.37666  -0.37263  -0.36236  -0.35318
  Beta  occ. eigenvalues --   -0.35139  -0.34859  -0.34164  -0.33898  -0.33536
  Beta  occ. eigenvalues --   -0.32860  -0.29743  -0.29185  -0.28684
  Beta virt. eigenvalues --   -0.19265  -0.17529  -0.15888  -0.13725  -0.12104
  Beta virt. eigenvalues --   -0.10815  -0.10637  -0.08322  -0.08223  -0.07656
  Beta virt. eigenvalues --   -0.06733  -0.06648  -0.05520  -0.05343  -0.04961

 Mulliken charges and spin densities:
               1          2
     1  C   -0.369447  -0.000150
     2  C    0.176590   0.001034
     3  N   -0.201119  -0.001021
     4  C   -0.229694   0.002187
     5  C    0.019938   0.000930
     6  N    0.131362  -0.033761
     7  C   -0.370830  -0.000198
     8  C   -0.177822   0.001941
     9  S    0.062185  -0.012689
    10  C   -0.387207   0.000521
    11  Fe  -0.397220   1.138828
    12  C   -0.510712  -0.005394
    13  C   -0.507625  -0.002128
    14  C   -0.444254  -0.003253
    15  C   -0.446440  -0.017344
    16  N    0.022167  -0.042465
    17  C    0.277334   0.006514
    18  C    0.001916   0.011299
    19  C   -0.087191   0.001770
    20  C    0.294311   0.006158
    21  C   -0.390649  -0.000428
    22  C   -0.287228  -0.001090
    23  C   -0.188478   0.000546
    24  C    0.278941   0.000107
    25  O   -0.335342   0.000003
    26  O   -0.361462   0.000134
    27  N   -0.100956  -0.026647
    28  C    0.276904   0.008002
    29  C   -0.065261   0.024263
    30  C    0.069787  -0.078366
    31  C    0.168384   0.016498
    32  C   -0.387166  -0.000306
    33  C   -0.313880   1.024960
    34  C   -0.315935  -0.075307
    35  N    0.085594  -0.045223
    36  C    0.172636   0.005266
    37  C    0.037896  -0.022489
    38  C   -0.007302   0.090547
    39  C    0.139307  -0.007012
    40  C   -0.390009  -0.001170
    41  C   -0.276119  -1.003629
    42  C   -0.325904   0.071685
    43  N    0.049109  -0.037548
    44  C    0.237118   0.007943
    45  C   -0.057116  -0.004809
    46  C    0.041553   0.005122
    47  C    0.272480   0.004170
    48  C   -0.384747  -0.000093
    49  C   -0.318961  -0.000649
    50  C   -0.223626   0.000297
    51  C    0.287998   0.000006
    52  O   -0.342035   0.000010
    53  O   -0.340604   0.000001
    54  H    0.166260  -0.001090
    55  H    0.155155   0.000541
    56  H    0.168023  -0.000445
    57  H    0.136168   0.000309
    58  H    0.121444   0.000075
    59  H    0.146480  -0.000176
    60  H    0.159783  -0.000929
    61  H    0.140509   0.000315
    62  H    0.155481   0.000083
    63  H    0.152495   0.000010
    64  H    0.149252  -0.000008
    65  H    0.155320  -0.000410
    66  H    0.247859  -0.000027
    67  H    0.210238  -0.000170
    68  H    0.356204   0.000007
    69  H    0.128118  -0.000021
    70  H    0.130007  -0.000017
    71  H    0.128570   0.000172
    72  H    0.118289   0.000033
    73  H    0.362589   0.000000
    74  H    0.131354  -0.000003
    75  H    0.121330  -0.000018
    76  H    0.132208   0.000102
    77  H    0.137302   0.000040
    78  H    0.113812   0.000057
    79  H    0.150626   0.000004
    80  H    0.135160   0.000001
    81  H    0.153869   0.000078
    82  H    0.145638  -0.000082
    83  H    0.140714  -0.000109
    84  H    0.150462  -0.000193
    85  H    0.143934  -0.003387
    86  H    0.135433  -0.086434
    87  H    0.137420  -0.024313
    88  H    0.135893  -0.017885
    89  H    0.150794   0.049556
    90  H    0.139854   0.000477
    91  H    0.155403  -0.000452
    92  H    0.152058   0.000172
    93  H    0.146183  -0.000969
    94  H    0.132928   0.003953
    95  H    0.136137   0.047259
    96  H    0.130380   0.078331
    97  H    0.155618  -0.052457
    98  H    0.143361  -0.000020
    99  H    0.154959   0.000226
   100  H    0.149831   0.000185
   101  H    0.137931   0.000053
 Sum of Mulliken charges =   1.00000   1.00000

 Dipole moment (field-independent basis, Debye):
    X=              5.6473    Y=             -1.5598    Z=             -2.6770  Tot=              6.4414
 Quadrupole moment (field-independent basis, Debye-Ang):
   XX=           -261.7375   YY=           -261.1581   ZZ=           -271.9224
   XY=              9.4449   XZ=             41.6316   YZ=             -1.7339

 Summary of Natural Population Analysis:

                                       Natural Population
                Natural  -----------------------------------------------
    Atom  No    Charge         Core      Valence    Rydberg      Total
 -----------------------------------------------------------------------
      C    1   -0.32122      0.99969     2.31563    0.00590     3.32122
      C    2    0.05854      0.99954     1.93278    0.00914     2.94146
      N    3   -0.22973      0.99967     2.72012    0.00994     3.72973
      C    4   -0.03068      0.99940     2.02188    0.00940     3.03068
      C    5    0.11088      0.99963     1.87875    0.01075     2.88912
      N    6   -0.17299      0.99960     2.64561    0.02779     3.67299
      C    7   -0.31500      0.99972     2.30903    0.00625     3.31500
      C    8   -0.24757      0.99963     2.23867    0.00927     3.24757
      S    9    0.28777      4.99925     2.69400    0.01899     7.71223
      C   10   -0.37277      0.99964     2.36427    0.00887     3.37277
     Fe   11    0.60002      8.99477     3.37818    0.02703    12.39998
      C   12   -0.12148      0.99948     2.11346    0.00853     3.12148
      C   13   -0.11539      0.99947     2.10759    0.00833     3.11539
      C   14   -0.12328      0.99946     2.11528    0.00853     3.12328
      C   15   -0.11974      0.99948     2.11140    0.00886     3.11974
      N   16   -0.20702      0.99968     2.68468    0.02266     3.70702
      C   17    0.07470      0.99950     1.91560    0.01019     2.92530
      C   18   -0.00377      0.99935     1.99457    0.00985     3.00377
      C   19   -0.00641      0.99935     1.99879    0.00827     3.00641
      C   20    0.08215      0.99951     1.90769    0.01065     2.91785
      C   21   -0.31760      0.99970     2.31435    0.00356     3.31760
      C   22   -0.20840      0.99968     2.20230    0.00642     3.20840
      C   23   -0.25095      0.99961     2.24276    0.00857     3.25095
      C   24    0.38013      0.99972     1.60304    0.01711     2.61987
      O   25   -0.33064      0.99982     3.31744    0.01339     4.33064
      O   26   -0.28987      0.99990     3.27875    0.01122     4.28987
      N   27   -0.21536      0.99969     2.69004    0.02563     3.71536
      C   28    0.07841      0.99951     1.91153    0.01056     2.92159
      C   29    0.00723      0.99934     1.98533    0.00810     2.99277
      C   30   -0.06314      0.99933     2.05330    0.01051     3.06314
      C   31    0.09302      0.99949     1.89750    0.00998     2.90698
      C   32   -0.31944      0.99970     2.31624    0.00350     3.31944
      C   33    0.42760      0.99960     1.56535    0.00744     2.57240
      C   34   -0.36877      0.99965     2.36168    0.00744     3.36877
      N   35   -0.19985      0.99966     2.67810    0.02209     3.69985
      C   36    0.07931      0.99951     1.91090    0.01028     2.92069
      C   37   -0.00944      0.99935     2.00162    0.00848     3.00944
      C   38   -0.01859      0.99929     2.00807    0.01123     3.01859
      C   39    0.07666      0.99951     1.91272    0.01111     2.92334
      C   40   -0.31967      0.99969     2.31620    0.00378     3.31967
      C   41   -0.51266      0.99961     2.50185    0.01120     3.51266
      C   42   -0.32426      0.99964     2.31546    0.00916     3.32426
      N   43   -0.20829      0.99968     2.68281    0.02580     3.70829
      C   44    0.08135      0.99952     1.90840    0.01073     2.91865
      C   45   -0.01001      0.99936     2.00204    0.00861     3.01001
      C   46   -0.00658      0.99935     1.99773    0.00950     3.00658
      C   47    0.07538      0.99951     1.91508    0.01003     2.92462
      C   48   -0.31676      0.99970     2.31356    0.00351     3.31676
      C   49   -0.21142      0.99965     2.20460    0.00717     3.21142
      C   50   -0.25292      0.99960     2.24500    0.00831     3.25292
      C   51    0.38386      0.99974     1.59895    0.01745     2.61614
      O   52   -0.33568      0.99980     3.32165    0.01423     4.33568
      O   53   -0.28495      0.99990     3.27354    0.01152     4.28495
      H   54    0.11416      0.00000     0.38530    0.00054     0.38584
      H   55    0.11400      0.00000     0.38537    0.00064     0.38600
      H   56    0.12729      0.00000     0.37213    0.00058     0.37271
      H   57    0.11149      0.00000     0.38736    0.00116     0.38851
      H   58    0.10955      0.00000     0.38960    0.00085     0.39045
      H   59    0.11365      0.00000     0.38579    0.00055     0.38635
      H   60    0.11746      0.00000     0.38183    0.00072     0.38254
      H   61    0.11358      0.00000     0.38543    0.00099     0.38642
      H   62    0.11671      0.00000     0.38273    0.00056     0.38329
      H   63    0.12167      0.00000     0.37797    0.00036     0.37833
      H   64    0.11554      0.00000     0.38392    0.00054     0.38446
      H   65    0.11878      0.00000     0.38051    0.00070     0.38122
      H   66    0.21265      0.00000     0.28661    0.00073     0.28735
      H   67    0.11984      0.00000     0.37916    0.00100     0.38016
      H   68    0.25991      0.00000     0.23885    0.00124     0.24009
      H   69    0.11927      0.00000     0.38005    0.00069     0.38073
      H   70    0.11753      0.00000     0.38181    0.00066     0.38247
      H   71    0.11417      0.00000     0.38499    0.00084     0.38583
      H   72    0.10753      0.00000     0.39178    0.00069     0.39247
      H   73    0.26136      0.00000     0.23748    0.00116     0.23864
      H   74    0.11257      0.00000     0.38673    0.00071     0.38743
      H   75    0.11449      0.00000     0.38486    0.00064     0.38551
      H   76    0.11172      0.00000     0.38731    0.00097     0.38828
      H   77    0.11831      0.00000     0.38090    0.00079     0.38169
      H   78    0.11169      0.00000     0.38694    0.00138     0.38831
      H   79    0.11461      0.00000     0.38465    0.00073     0.38539
      H   80    0.11124      0.00000     0.38817    0.00059     0.38876
      H   81    0.11286      0.00000     0.38636    0.00078     0.38714
      H   82    0.11492      0.00000     0.38435    0.00072     0.38508
      H   83    0.11159      0.00000     0.38780    0.00061     0.38841
      H   84    0.11301      0.00000     0.38629    0.00070     0.38699
      H   85    0.11744      0.00000     0.38118    0.00138     0.38256
      H   86    0.07491      0.00000     0.42299    0.00210     0.42509
      H   87    0.10352      0.00000     0.39562    0.00085     0.39648
      H   88    0.10145      0.00000     0.39757    0.00098     0.39855
      H   89    0.11275      0.00000     0.38636    0.00089     0.38725
      H   90    0.11148      0.00000     0.38787    0.00066     0.38852
      H   91    0.11609      0.00000     0.38324    0.00067     0.38391
      H   92    0.11458      0.00000     0.38474    0.00068     0.38542
      H   93    0.11915      0.00000     0.37975    0.00110     0.38085
      H   94    0.11657      0.00000     0.38287    0.00056     0.38343
      H   95    0.13447      0.00000     0.36495    0.00058     0.36553
      H   96    0.14915      0.00000     0.35035    0.00050     0.35085
      H   97    0.08463      0.00000     0.41462    0.00074     0.41537
      H   98    0.11211      0.00000     0.38722    0.00067     0.38789
      H   99    0.11595      0.00000     0.38342    0.00063     0.38405
      H  100    0.11387      0.00000     0.38543    0.00070     0.38613
      H  101    0.11404      0.00000     0.38469    0.00127     0.38596
 =======================================================================
   * Total *    1.00000     64.97263   138.39178    0.63559   204.00000

 Normal termination of Gaussian 16 at Thu Feb 23 23:05:44 2023.
