 Gaussian 16, Revision A.03,
 Gaussian 16:  ES64L-G16RevA.03 25-Dec-2016

 ---------------------------------------------------------------------
 # polar def2tzvp empiricaldispersion=gd3bj int=grid=ultrafine pbe1pbe
 ---------------------------------------------------------------------

 ---------
 1cry_II_S
 ---------
 Symbolic Z-matrix:
 Charge =  0 Multiplicity = 1

                         Standard orientation:
 ---------------------------------------------------------------------
 Center     Atomic      Atomic             Coordinates (Angstroms)
 Number     Number       Type             X           Y           Z
 ---------------------------------------------------------------------
      1          6           0        2.508484   -1.500272    4.973537
      2          6           0        1.730312   -1.104455    3.784603
      3          7           0        0.376573   -1.253928    3.687894
      4          6           0        2.089705   -0.580736    2.600872
      5          6           0       -0.055828   -0.831832    2.524567
      6          7           0        0.978015   -0.412111    1.843546
      7          6           0       -0.716279    3.046624   -2.668771
      8          6           0        0.562144    2.328581   -2.904054
      9         16           0        0.445406    0.661489   -2.146629
     10          6           0        1.427062   -0.284806   -3.317838
     11         26           0        0.876349   -0.093247   -0.001944
     12          6           0       -2.512300   -0.003416    0.034222
     13          6           0        0.779031   -3.425162   -0.689223
     14          6           0        4.257602   -0.067235   -0.612602
     15          6           0        0.991796    3.132095    1.065518
     16          7           0       -0.578127   -1.464092   -0.258625
     17          6           0       -1.940039   -1.229948   -0.247969
     18          6           0       -2.643792   -2.436396   -0.586990
     19          6           0       -1.733325   -3.394129   -0.786043
     20          6           0       -0.436158   -2.798140   -0.586676
     21          6           0       -1.976408   -4.881460   -1.149380
     22          6           0       -4.196557   -2.561188   -0.603618
     23          6           0       -4.649887   -3.362070    0.644156
     24          6           0       -6.109472   -3.620695    0.833856
     25          8           0       -6.821269   -3.435270   -0.194234
     26          8           0       -6.494473   -3.990472    1.988322
     27          7           0        2.238628   -1.434957   -0.646420
     28          6           0        2.013015   -2.805946   -0.684939
     29          6           0        3.276597   -3.498166   -0.740963
     30          6           0        4.233452   -2.573120   -0.746795
     31          6           0        3.608856   -1.274430   -0.686484
     32          6           0        3.381730   -5.038307   -0.807339
     33          6           0        5.776154   -2.835314   -0.820620
     34          6           0        6.231248   -3.046066   -2.097514
     35          7           0        2.337045    1.250590    0.211001
     36          6           0        3.673797    1.063261   -0.064988
     37          6           0        4.378238    2.291862    0.248563
     38          6           0        3.481013    3.178200    0.676564
     39          6           0        2.189273    2.545370    0.682670
     40          6           0        5.901408    2.499531    0.045551
     41          6           0        3.754788    4.647349    1.155890
     42          6           0        3.873093    5.576407    0.166877
     43          7           0       -0.498389    1.295150    0.507306
     44          6           0       -0.274824    2.627649    0.843967
     45          6           0       -1.539937    3.323260    0.897952
     46          6           0       -2.509574    2.449285    0.615634
     47          6           0       -1.869029    1.178571    0.363212
     48          6           0       -1.695203    4.819050    1.235815
     49          6           0       -4.041387    2.636259    0.548715
     50          6           0       -4.708314    2.807495   -0.811968
     51          6           0       -6.097624    3.396124   -0.882576
     52          8           0       -6.419073    3.921893   -1.977235
     53          8           0       -6.828310    3.315588    0.139882
     54          1           0        0.816620   -0.564402   -4.150957
     55          1           0        2.246535    0.311841   -3.660439
     56          1           0        1.802396   -1.165174   -2.839322
     57          1           0       -1.503691    2.336044   -2.527491
     58          1           0       -0.626483    3.657886   -1.795161
     59          1           0       -0.939800    3.663308   -3.514135
     60          1           0        0.733478    2.234478   -3.956046
     61          1           0        1.367574    2.871787   -2.455600
     62          1           0        2.516320   -2.567080    5.055750
     63          1           0        3.512377   -1.142521    4.878078
     64          1           0        2.061239   -1.078338    5.849233
     65          1           0        3.088560   -0.336922    2.304656
     66          1           0       -0.205782   -1.633703    4.406666
     67          1           0       -1.072842   -0.831009    2.192030
     68          1           0       -7.529161   -4.048535   -0.404933
     69          1           0       -4.155473   -4.310562    0.615565
     70          1           0       -4.300484   -2.837135    1.508598
     71          1           0       -4.505643   -3.073800   -1.490520
     72          1           0       -4.634992   -1.585373   -0.582169
     73          1           0       -7.141445    3.554986   -2.492170
     74          1           0       -4.068531    3.426316   -1.405801
     75          1           0       -4.746273    1.842618   -1.272914
     76          1           0       -4.488463    1.785718    1.019463
     77          1           0       -4.284543    3.497706    1.134960
     78          1           0       -3.580733    0.037849   -0.006381
     79          1           0       -2.711711   -4.943759   -1.924202
     80          1           0       -1.061507   -5.319568   -1.489848
     81          1           0       -2.323784   -5.407629   -0.284871
     82          1           0       -2.698153    5.010159    1.555922
     83          1           0       -1.014868    5.080224    2.019289
     84          1           0       -1.480376    5.405164    0.366781
     85          1           0        1.055668    4.066524    1.582879
     86          1           0        2.922857    6.037254   -0.005089
     87          1           0        4.582888    6.321361    0.460366
     88          1           0        4.206469    5.100435   -0.731572
     89          1           0        3.842708    4.902340    2.191337
     90          1           0        6.159523    2.277792   -0.968899
     91          1           0        6.155082    3.515778    0.264161
     92          1           0        6.440685    1.848323    0.701302
     93          1           0        5.254989    0.003540   -0.993537
     94          1           0        7.224186   -3.443131   -2.061279
     95          1           0        5.587371   -3.740519   -2.595568
     96          1           0        6.237144   -2.118927   -2.631628
     97          1           0        6.412037   -2.848696    0.039830
     98          1           0        2.781312   -5.402323   -1.614736
     99          1           0        4.401758   -5.319652   -0.966364
    100          1           0        3.034924   -5.459477    0.113118
    101          1           0        0.770093   -4.491191   -0.780891
 ---------------------------------------------------------------------

 SCF Done:  E(RPBE1PBE) =  -3880.46023402     A.U. after   40 cycles

 The electronic state is 1-A.
 Alpha  occ. eigenvalues -- -256.30142 -89.00612 -30.07115 -25.89900 -25.89560
 Alpha  occ. eigenvalues --  -25.89548 -19.27095 -19.26292 -19.18289 -19.18044
 Alpha  occ. eigenvalues --  -14.44097 -14.38363 -14.36351 -14.36339 -14.36310
 Alpha  occ. eigenvalues --  -14.36282 -10.35654 -10.35605 -10.27006 -10.25206
 Alpha  occ. eigenvalues --  -10.23775 -10.23707 -10.23692 -10.23659 -10.23611
 Alpha  occ. eigenvalues --  -10.23591 -10.23508 -10.23446 -10.23445 -10.22791
 Alpha  occ. eigenvalues --  -10.22710 -10.22647 -10.22620 -10.22599 -10.22525
 Alpha  occ. eigenvalues --  -10.22311 -10.21878 -10.21650 -10.21631 -10.21569
 Alpha  occ. eigenvalues --  -10.21466 -10.21464 -10.21457 -10.21455 -10.21369
 Alpha  occ. eigenvalues --  -10.21342 -10.21263 -10.21241 -10.21152 -10.21086
 Alpha  occ. eigenvalues --  -10.20911 -10.20861 -10.20811 -10.20724 -10.19879
 Alpha  occ. eigenvalues --  -10.19775 -10.19330  -7.98473  -5.92148  -5.91845
 Alpha  occ. eigenvalues --   -5.91264  -3.41702  -2.17783  -2.16987  -2.16964
 Alpha  occ. eigenvalues --   -1.16733  -1.16699  -1.07258  -1.02473  -1.01849
 Alpha  occ. eigenvalues --   -0.96948  -0.96054  -0.95853  -0.94954  -0.91269
 Alpha  occ. eigenvalues --   -0.83348  -0.83052  -0.82881  -0.82659  -0.82431
 Alpha  occ. eigenvalues --   -0.82159  -0.81728  -0.80503  -0.80020  -0.78936
 Alpha  occ. eigenvalues --   -0.78553  -0.77941  -0.77559  -0.76110  -0.74866
 Alpha  occ. eigenvalues --   -0.73952  -0.72998  -0.72648  -0.71689  -0.70932
 Alpha  occ. eigenvalues --   -0.69967  -0.69740  -0.68791  -0.65985  -0.65719
 Alpha  occ. eigenvalues --   -0.65477  -0.64775  -0.64713  -0.64128  -0.62272
 Alpha  occ. eigenvalues --   -0.61076  -0.60710  -0.60051  -0.58605  -0.57151
 Alpha  occ. eigenvalues --   -0.56764  -0.55356  -0.54271  -0.54186  -0.52914
 Alpha  occ. eigenvalues --   -0.52240  -0.51981  -0.51722  -0.51355  -0.51110
 Alpha  occ. eigenvalues --   -0.50815  -0.50466  -0.49395  -0.49025  -0.48590
 Alpha  occ. eigenvalues --   -0.48409  -0.48199  -0.48119  -0.47930  -0.47649
 Alpha  occ. eigenvalues --   -0.46286  -0.46006  -0.45524  -0.45393  -0.45215
 Alpha  occ. eigenvalues --   -0.44714  -0.44518  -0.44453  -0.44119  -0.43982
 Alpha  occ. eigenvalues --   -0.43865  -0.43619  -0.43544  -0.43404  -0.43219
 Alpha  occ. eigenvalues --   -0.43039  -0.42989  -0.42692  -0.42383  -0.42320
 Alpha  occ. eigenvalues --   -0.41901  -0.41778  -0.41521  -0.40908  -0.40461
 Alpha  occ. eigenvalues --   -0.40118  -0.39999  -0.39819  -0.39777  -0.39194
 Alpha  occ. eigenvalues --   -0.38945  -0.38678  -0.38630  -0.38543  -0.38235
 Alpha  occ. eigenvalues --   -0.37804  -0.37530  -0.37339  -0.37248  -0.37036
 Alpha  occ. eigenvalues --   -0.36882  -0.36687  -0.36398  -0.36232  -0.35661
 Alpha  occ. eigenvalues --   -0.34959  -0.34292  -0.34062  -0.33700  -0.33583
 Alpha  occ. eigenvalues --   -0.33293  -0.33151  -0.32476  -0.32303  -0.32179
 Alpha  occ. eigenvalues --   -0.31528  -0.31075  -0.29915  -0.29241  -0.28000
 Alpha  occ. eigenvalues --   -0.27806  -0.27484  -0.27178  -0.25900  -0.25072
 Alpha  occ. eigenvalues --   -0.24085  -0.23804  -0.22915  -0.22144  -0.19477
 Alpha  occ. eigenvalues --   -0.18359  -0.18240  -0.18039  -0.17475  -0.12740
 Alpha virt. eigenvalues --   -0.11027  -0.06440  -0.06241  -0.01334  -0.00723
 Alpha virt. eigenvalues --   -0.00350   0.01920   0.02347   0.02994   0.03144
 Alpha virt. eigenvalues --    0.03301   0.03726   0.04156   0.04626   0.05030

 Mulliken charges:
               1
     1  C   -0.384906
     2  C    0.190911
     3  N   -0.219460
     4  C   -0.236651
     5  C    0.011899
     6  N    0.100608
     7  C   -0.356500
     8  C   -0.174019
     9  S    0.034729
    10  C   -0.383678
    11  Fe  -0.404716
    12  C   -0.527275
    13  C   -0.517353
    14  C   -0.473266
    15  C   -0.459636
    16  N    0.015299
    17  C    0.268736
    18  C   -0.003867
    19  C   -0.082912
    20  C    0.287235
    21  C   -0.410876
    22  C   -0.299163
    23  C   -0.187021
    24  C    0.277877
    25  O   -0.333623
    26  O   -0.376707
    27  N   -0.117359
    28  C    0.275424
    29  C   -0.069890
    30  C    0.098992
    31  C    0.171254
    32  C   -0.404773
    33  C   -0.390645
    34  C   -0.288503
    35  N    0.077403
    36  C    0.168232
    37  C    0.030557
    38  C    0.026319
    39  C    0.128885
    40  C   -0.405766
    41  C   -0.345957
    42  C   -0.295905
    43  N    0.029666
    44  C    0.233539
    45  C   -0.049145
    46  C    0.038173
    47  C    0.272139
    48  C   -0.403787
    49  C   -0.331880
    50  C   -0.220974
    51  C    0.285273
    52  O   -0.344837
    53  O   -0.351989
    54  H    0.139388
    55  H    0.133114
    56  H    0.162114
    57  H    0.129083
    58  H    0.116409
    59  H    0.118112
    60  H    0.131618
    61  H    0.124611
    62  H    0.140530
    63  H    0.145322
    64  H    0.132156
    65  H    0.138591
    66  H    0.226351
    67  H    0.193737
    68  H    0.345496
    69  H    0.123506
    70  H    0.133433
    71  H    0.113076
    72  H    0.113773
    73  H    0.353986
    74  H    0.132263
    75  H    0.122405
    76  H    0.125134
    77  H    0.123400
    78  H    0.090725
    79  H    0.134715
    80  H    0.129556
    81  H    0.137797
    82  H    0.129890
    83  H    0.132278
    84  H    0.138768
    85  H    0.112414
    86  H    0.134904
    87  H    0.119439
    88  H    0.136751
    89  H    0.139424
    90  H    0.129406
    91  H    0.139308
    92  H    0.139882
    93  H    0.120831
    94  H    0.112077
    95  H    0.132995
    96  H    0.131294
    97  H    0.145536
    98  H    0.133431
    99  H    0.138748
   100  H    0.138011
   101  H    0.114097
 Sum of Mulliken charges =  -0.00000

 Dipole moment (field-independent basis, Debye):
    X=              1.9216    Y=             -1.3459    Z=             -2.5829  Tot=              3.4894
 Quadrupole moment (field-independent basis, Debye-Ang):
   XX=           -324.1968   YY=           -311.0834   ZZ=           -299.5392
   XY=             10.3270   XZ=             41.1032   YZ=             -2.8201

  Exact polarizability: 832.948 -62.6241009.347 -31.638 113.160 465.058
 Approx polarizability:2222.975****************-857.8763198.4561541.120

 Normal termination of Gaussian 16 at Sun Feb  5 11:33:32 2023.
