 Gaussian 16, Revision A.03,
 Gaussian 16:  ES64L-G16RevA.03 25-Dec-2016

 ---------------------------------------------------------------------
 # polar def2tzvp empiricaldispersion=gd3bj int=grid=ultrafine pbe1pbe
 ---------------------------------------------------------------------

 ---------
 1a6g_II_S
 ---------
 Symbolic Z-matrix:
 Charge =  0 Multiplicity = 1

                         Standard orientation:
 ---------------------------------------------------------------------
 Center     Atomic      Atomic             Coordinates (Angstroms)
 Number     Number       Type             X           Y           Z
 ---------------------------------------------------------------------
      1          6           0        2.765671   -1.843938    4.836302
      2          6           0        1.895380   -1.234056    3.800730
      3          7           0        0.560181   -1.008346    3.992359
      4          6           0        2.139283   -0.918838    2.509806
      5          6           0        0.052528   -0.569230    2.825725
      6          7           0        0.991538   -0.500236    1.885150
      7          6           0       -0.112184    3.087679   -2.594729
      8          6           0        0.959607    2.025606   -2.803542
      9         16           0        0.362194    0.372023   -2.360042
     10          6           0        1.395861   -0.660846   -3.407760
     11         26           0        0.782375   -0.057943   -0.079378
     12          6           0       -2.586396   -0.426501   -0.089761
     13          6           0        1.170443   -3.361333   -0.750321
     14          6           0        4.136632    0.426256   -0.433907
     15          6           0        0.452278    3.136154    0.991823
     16          7           0       -0.478356   -1.620077   -0.328454
     17          6           0       -1.847759   -1.570941   -0.264451
     18          6           0       -2.374109   -2.906769   -0.488685
     19          6           0       -1.332040   -3.718721   -0.691777
     20          6           0       -0.121583   -2.926537   -0.605698
     21          6           0       -1.358400   -5.215594   -0.995715
     22          6           0       -3.859715   -3.281095   -0.368597
     23          6           0       -4.334784   -3.293199    1.087352
     24          6           0       -5.848744   -3.250722    1.244181
     25          8           0       -6.286111   -3.630851    2.384234
     26          8           0       -6.532967   -2.824238    0.314518
     27          7           0        2.350858   -1.221017   -0.509961
     28          6           0        2.300915   -2.588910   -0.743056
     29          6           0        3.633693   -3.078306   -1.012766
     30          6           0        4.455984   -2.005238   -0.989953
     31          6           0        3.663229   -0.849736   -0.687366
     32          6           0        4.006161   -4.549339   -1.186798
     33          6           0        5.960974   -1.954836   -1.220524
     34          6           0        6.363092   -2.380784   -2.643140
     35          7           0        2.026187    1.477242    0.222550
     36          6           0        3.389992    1.470680    0.063469
     37          6           0        3.959298    2.736393    0.531358
     38          6           0        2.943886    3.462634    1.009774
     39          6           0        1.732495    2.699853    0.790111
     40          6           0        5.469809    3.059513    0.508939
     41          6           0        2.974142    4.772724    1.807114
     42          6           0        3.607741    5.954997    1.053784
     43          7           0       -0.739677    1.122281    0.308967
     44          6           0       -0.699043    2.458422    0.705152
     45          6           0       -2.033982    3.003163    0.746191
     46          6           0       -2.883438    2.025098    0.368565
     47          6           0       -2.088226    0.834112    0.179543
     48          6           0       -2.358886    4.479176    1.016942
     49          6           0       -4.390222    2.161162    0.145752
     50          6           0       -4.703263    2.645439   -1.295131
     51          6           0       -6.179899    2.860077   -1.496246
     52          8           0       -6.957965    1.891846   -1.439922
     53          8           0       -6.505781    4.024410   -1.798722
     54          1           0        2.165564   -2.168306    5.660655
     55          1           0        3.282128   -2.683071    4.419136
     56          1           0        3.476891   -1.120225    5.175870
     57          1           0        0.053615   -1.144656    4.843717
     58          1           0       -0.974195   -0.309018    2.673972
     59          1           0        3.097496   -0.986452    2.038470
     60          1           0        1.420762   -1.655671   -3.014565
     61          1           0        0.993349   -0.679079   -4.398997
     62          1           0        2.388596   -0.262434   -3.433201
     63          1           0       -0.018286    3.500802   -1.612175
     64          1           0        0.008678    3.864002   -3.321100
     65          1           0       -1.079810    2.644273   -2.704234
     66          1           0        1.808735    2.263523   -2.197508
     67          1           0        1.254306    2.025407   -3.832159
     68          1           0        3.429747   -5.145608   -0.510700
     69          1           0        3.802086   -4.852365   -2.192496
     70          1           0        5.047579   -4.680554   -0.979114
     71          1           0        1.309974   -4.413911   -0.882655
     72          1           0       -2.088898   -5.692522   -0.376189
     73          1           0       -1.610276   -5.366228   -2.024679
     74          1           0       -0.394489   -5.636477   -0.799161
     75          1           0       -4.488589   -3.506847   -1.204332
     76          1           0       -3.663144   -3.328346    1.919557
     77          1           0       -6.317354   -3.011627    3.117164
     78          1           0       -3.649314   -0.519749   -0.169817
     79          1           0       -4.785779    2.866642    0.846275
     80          1           0       -4.855244    1.210712    0.304812
     81          1           0       -4.188757    3.566462   -1.473739
     82          1           0       -4.358601    1.911333   -1.993125
     83          1           0       -7.390612    1.671279   -0.611812
     84          1           0       -2.138466    4.711435    2.037907
     85          1           0       -1.767796    5.098111    0.374732
     86          1           0       -3.396814    4.656591    0.826867
     87          1           0        0.340368    4.110749    1.419071
     88          1           0        5.916773    2.738974    1.426750
     89          1           0        5.931657    2.548884   -0.310118
     90          1           0        5.607214    4.114482    0.394656
     91          1           0        6.472280   -3.418473   -2.880159
     92          1           0        6.533572   -1.639334   -3.395529
     93          1           0        6.664241   -1.654826   -0.471986
     94          1           0        5.168808    0.616686   -0.641874
     95          1           0        3.784794    6.879942    1.561750
     96          1           0        3.871370    5.852347    0.021862
     97          1           0        2.587911    4.857000    2.801410
 ---------------------------------------------------------------------

 SCF Done:  E(RPBE1PBE) =  -3878.01240633     A.U. after   28 cycles

 The electronic state is 1-A.
 Alpha  occ. eigenvalues -- -256.31239 -89.01989 -30.08180 -25.90985 -25.90632
 Alpha  occ. eigenvalues --  -25.90599 -19.25145 -19.24948 -19.18667 -19.17419
 Alpha  occ. eigenvalues --  -14.45456 -14.39948 -14.37108 -14.37079 -14.36979
 Alpha  occ. eigenvalues --  -14.36924 -10.35636 -10.34351 -10.28541 -10.27974
 Alpha  occ. eigenvalues --  -10.26914 -10.26312 -10.26282 -10.25780 -10.24652
 Alpha  occ. eigenvalues --  -10.24621 -10.24411 -10.24244 -10.24186 -10.24185
 Alpha  occ. eigenvalues --  -10.24180 -10.24032 -10.24018 -10.23891 -10.23493
 Alpha  occ. eigenvalues --  -10.23441 -10.23189 -10.23143 -10.22838 -10.22573
 Alpha  occ. eigenvalues --  -10.22551 -10.22530 -10.22360 -10.22301 -10.21951
 Alpha  occ. eigenvalues --  -10.21867 -10.21858 -10.21772 -10.21535 -10.21389
 Alpha  occ. eigenvalues --  -10.21361 -10.21170 -10.21135 -10.21117 -10.21043
 Alpha  occ. eigenvalues --  -10.20944 -10.19475  -7.99764  -5.93422  -5.93118
 Alpha  occ. eigenvalues --   -5.92601  -3.42637  -2.18602  -2.17941  -2.17884
 Alpha  occ. eigenvalues --   -1.16383  -1.15182  -1.06648  -1.03986  -1.02386
 Alpha  occ. eigenvalues --   -0.97671  -0.96772  -0.96524  -0.95574  -0.91899
 Alpha  occ. eigenvalues --   -0.83664  -0.83265  -0.83064  -0.82086  -0.81905
 Alpha  occ. eigenvalues --   -0.81732  -0.81381  -0.80762  -0.80669  -0.78515
 Alpha  occ. eigenvalues --   -0.77198  -0.76281  -0.75985  -0.75477  -0.74875
 Alpha  occ. eigenvalues --   -0.73120  -0.73067  -0.72287  -0.71477  -0.70936
 Alpha  occ. eigenvalues --   -0.69475  -0.69227  -0.68807  -0.66578  -0.66179
 Alpha  occ. eigenvalues --   -0.65814  -0.65577  -0.64985  -0.63322  -0.62473
 Alpha  occ. eigenvalues --   -0.62259  -0.61884  -0.60036  -0.59246  -0.57440
 Alpha  occ. eigenvalues --   -0.56930  -0.55890  -0.54975  -0.54690  -0.53525
 Alpha  occ. eigenvalues --   -0.52999  -0.52666  -0.51964  -0.51626  -0.51084
 Alpha  occ. eigenvalues --   -0.49829  -0.49613  -0.49000  -0.48639  -0.48576
 Alpha  occ. eigenvalues --   -0.48504  -0.48364  -0.47826  -0.47775  -0.47231
 Alpha  occ. eigenvalues --   -0.46311  -0.45940  -0.45503  -0.45278  -0.45111
 Alpha  occ. eigenvalues --   -0.44760  -0.44662  -0.44323  -0.44265  -0.44152
 Alpha  occ. eigenvalues --   -0.43892  -0.43751  -0.43523  -0.43423  -0.43299
 Alpha  occ. eigenvalues --   -0.43042  -0.42932  -0.42745  -0.42496  -0.42367
 Alpha  occ. eigenvalues --   -0.42337  -0.42058  -0.41615  -0.41075  -0.40378
 Alpha  occ. eigenvalues --   -0.40077  -0.39966  -0.39580  -0.39483  -0.39348
 Alpha  occ. eigenvalues --   -0.38807  -0.38786  -0.38447  -0.38253  -0.37939
 Alpha  occ. eigenvalues --   -0.37882  -0.37478  -0.37111  -0.36811  -0.36734
 Alpha  occ. eigenvalues --   -0.36358  -0.36303  -0.35617  -0.35307  -0.35035
 Alpha  occ. eigenvalues --   -0.34272  -0.33742  -0.33702  -0.33235  -0.32954
 Alpha  occ. eigenvalues --   -0.32701  -0.32503  -0.32120  -0.30626  -0.30048
 Alpha  occ. eigenvalues --   -0.29169  -0.28349  -0.28264  -0.27004  -0.26798
 Alpha  occ. eigenvalues --   -0.26180  -0.25993  -0.25129  -0.24678  -0.24375
 Alpha  occ. eigenvalues --   -0.23842  -0.23365  -0.20372  -0.19764  -0.18902
 Alpha  occ. eigenvalues --   -0.18761  -0.18686  -0.17627
 Alpha virt. eigenvalues --   -0.10756  -0.07744  -0.06696  -0.06533  -0.03480
 Alpha virt. eigenvalues --   -0.00751  -0.00071   0.00875   0.01439   0.01706
 Alpha virt. eigenvalues --    0.02585   0.02920   0.03624   0.04173   0.04225

 Mulliken charges:
               1
     1  C   -0.359704
     2  C    0.136488
     3  N   -0.219919
     4  C   -0.182695
     5  C    0.004370
     6  N    0.063501
     7  C   -0.358788
     8  C   -0.167337
     9  S    0.031667
    10  C   -0.372238
    11  Fe  -0.498585
    12  C   -0.482823
    13  C   -0.492458
    14  C   -0.520289
    15  C   -0.556603
    16  N    0.049247
    17  C    0.249099
    18  C   -0.045226
    19  C   -0.024822
    20  C    0.276542
    21  C   -0.402848
    22  C   -0.244848
    23  C   -0.247777
    24  C    0.333585
    25  O   -0.380734
    26  O   -0.329775
    27  N    0.036433
    28  C    0.137088
    29  C    0.016815
    30  C    0.064065
    31  C    0.136653
    32  C   -0.433051
    33  C   -0.266638
    34  C   -0.323053
    35  N    0.006729
    36  C    0.293030
    37  C   -0.069092
    38  C    0.048245
    39  C    0.309847
    40  C   -0.362412
    41  C   -0.273848
    42  C   -0.306100
    43  N    0.058606
    44  C    0.231289
    45  C   -0.078631
    46  C    0.079061
    47  C    0.253453
    48  C   -0.400376
    49  C   -0.462078
    50  C   -0.148309
    51  C    0.285192
    52  O   -0.339380
    53  O   -0.336165
    54  H    0.114641
    55  H    0.150609
    56  H    0.148370
    57  H    0.231977
    58  H    0.162037
    59  H    0.146006
    60  H    0.162855
    61  H    0.150415
    62  H    0.139045
    63  H    0.136795
    64  H    0.122822
    65  H    0.120569
    66  H    0.132266
    67  H    0.127397
    68  H    0.131727
    69  H    0.144275
    70  H    0.135346
    71  H    0.097613
    72  H    0.138182
    73  H    0.142942
    74  H    0.124303
    75  H    0.172727
    76  H    0.142425
    77  H    0.346032
    78  H    0.144027
    79  H    0.139820
    80  H    0.122412
    81  H    0.128499
    82  H    0.127136
    83  H    0.357437
    84  H    0.134146
    85  H    0.145855
    86  H    0.137852
    87  H    0.116796
    88  H    0.135602
    89  H    0.129045
    90  H    0.134891
    91  H    0.157101
    92  H    0.152765
    93  H    0.162711
    94  H    0.108449
    95  H    0.135026
    96  H    0.152189
    97  H    0.142460
 Sum of Mulliken charges =  -0.00000

 Dipole moment (field-independent basis, Debye):
    X=              5.1818    Y=             -3.0236    Z=              7.6482  Tot=              9.7205
 Quadrupole moment (field-independent basis, Debye-Ang):
   XX=           -350.3613   YY=           -333.0773   ZZ=           -282.5777
   XY=              7.6084   XZ=            -30.8642   YZ=              1.2089

  Exact polarizability: 873.109   3.919 755.884 -61.482  59.370 475.523
 Approx polarizability:1487.968   1.9181361.934-135.621 170.358 828.076

 Normal termination of Gaussian 16 at Mon Jan 16 10:07:52 2023.
