 Gaussian 16, Revision A.03,
 Gaussian 16:  ES64L-G16RevA.03 25-Dec-2016

 ---------------------------------------------------------------------
 # polar def2tzvp empiricaldispersion=gd3bj int=grid=ultrafine pbe1pbe
 ---------------------------------------------------------------------

 ---------
 1cxc_II_S
 ---------
 Symbolic Z-matrix:
 Charge =  0 Multiplicity = 1

                         Standard orientation:
 ---------------------------------------------------------------------
 Center     Atomic      Atomic             Coordinates (Angstroms)
 Number     Number       Type             X           Y           Z
 ---------------------------------------------------------------------
      1          6           0        2.696950   -1.802421    4.862558
      2          6           0        1.755409   -1.282022    3.774029
      3          7           0        0.364424   -1.370551    3.887166
      4          6           0        2.109695   -0.798069    2.530276
      5          6           0       -0.085529   -0.928021    2.692068
      6          7           0        0.875895   -0.600703    1.884125
      7          6           0       -0.614060    3.099490   -2.664315
      8          6           0        0.712625    2.342734   -2.619238
      9         16           0        0.519372    0.555136   -2.318269
     10          6           0        1.842575   -0.033833   -3.300173
     11         26           0        0.755783   -0.067386   -0.057266
     12          6           0       -2.624426   -0.135793    0.060431
     13          6           0        0.820637   -3.390412   -0.802439
     14          6           0        4.168467    0.059620   -0.352581
     15          6           0        0.750698    3.189102    0.994823
     16          7           0       -0.606837   -1.466726   -0.353662
     17          6           0       -1.982683   -1.315000   -0.277306
     18          6           0       -2.658953   -2.562205   -0.589497
     19          6           0       -1.696791   -3.474485   -0.861144
     20          6           0       -0.427221   -2.792289   -0.678007
     21          6           0       -1.933142   -4.891036   -1.365853
     22          6           0       -4.154488   -2.838469   -0.534509
     23          6           0       -4.515216   -3.532218    0.769660
     24          6           0       -5.992850   -3.547930    1.127351
     25          8           0       -6.303814   -3.368755    2.286486
     26          8           0       -6.814597   -3.544247    0.217068
     27          7           0        2.170944   -1.366176   -0.500680
     28          6           0        2.027952   -2.731208   -0.703436
     29          6           0        3.319770   -3.370873   -0.888791
     30          6           0        4.280354   -2.395356   -0.845012
     31          6           0        3.552636   -1.157257   -0.587559
     32          6           0        3.545480   -4.872386   -1.103371
     33          6           0        5.675172   -2.561132   -1.081529
     34          6           0        6.172237   -3.022260   -2.464239
     35          7           0        2.140401    1.333608    0.214006
     36          6           0        3.514454    1.212135    0.029454
     37          6           0        4.200065    2.425612    0.427126
     38          6           0        3.243115    3.304280    0.804968
     39          6           0        1.971984    2.617356    0.684988
     40          6           0        5.703040    2.586150    0.602399
     41          6           0        3.435187    4.601558    1.269489
     42          6           0        4.149461    5.614921    0.506610
     43          7           0       -0.622963    1.225613    0.437044
     44          6           0       -0.468171    2.542545    0.865871
     45          6           0       -1.749869    3.184099    1.062841
     46          6           0       -2.698313    2.278760    0.735407
     47          6           0       -1.998005    1.059743    0.378225
     48          6           0       -1.992886    4.623551    1.511678
     49          6           0       -4.167940    2.579401    0.483323
     50          6           0       -4.465699    2.664210   -1.012915
     51          6           0       -5.727189    3.462400   -1.373069
     52          8           0       -5.894836    3.787021   -2.539477
     53          8           0       -6.668257    3.448155   -0.597356
     54          1           0        2.369471    0.795750   -3.723343
     55          1           0        2.510189   -0.607626   -2.691936
     56          1           0        1.457190   -0.649772   -4.085665
     57          1           0       -0.769186    3.489064   -3.648727
     58          1           0       -1.413275    2.433427   -2.414286
     59          1           0       -0.588741    3.905905   -1.961496
     60          1           0        1.216519    2.479847   -3.553150
     61          1           0        1.316691    2.757532   -1.839528
     62          1           0        3.288347   -0.994038    5.238945
     63          1           0        2.121616   -2.224785    5.659740
     64          1           0        3.339166   -2.552276    4.450034
     65          1           0       -0.171961   -1.687256    4.669463
     66          1           0       -1.122694   -0.855360    2.439265
     67          1           0        3.092232   -0.615913    2.147732
     68          1           0        6.377580   -2.365267   -0.298484
     69          1           0        6.679769   -2.214288   -2.948484
     70          1           0        6.844983   -3.845727   -2.345012
     71          1           0        5.337323   -3.327160   -3.059936
     72          1           0        4.237634   -5.017855   -1.906280
     73          1           0        3.941370   -5.305034   -0.208392
     74          1           0        2.614930   -5.341971   -1.345167
     75          1           0        5.230083    0.109981   -0.476414
     76          1           0        5.976872    3.604023    0.418415
     77          1           0        5.976209    2.318352    1.601680
     78          1           0        6.212904    1.948961   -0.089648
     79          1           0        3.490907    6.430803    0.293203
     80          1           0        4.982879    5.968980    1.076659
     81          1           0        4.499615    5.189842   -0.410777
     82          1           0        3.041023    4.865719    2.228527
     83          1           0        0.747155    4.195751    1.357513
     84          1           0        0.846967   -4.443607   -0.989487
     85          1           0       -1.522890   -4.992525   -2.348856
     86          1           0       -1.458276   -5.588123   -0.707468
     87          1           0       -2.984393   -5.088170   -1.396003
     88          1           0       -4.687822   -1.913345   -0.602343
     89          1           0       -4.428737   -3.466018   -1.356621
     90          1           0       -4.175970   -4.545401    0.712444
     91          1           0       -3.986135   -3.046064    1.562521
     92          1           0       -6.798182   -2.846027   -0.441583
     93          1           0       -3.694218   -0.147930    0.077705
     94          1           0       -2.423229    5.180597    0.705821
     95          1           0       -2.662383    4.628693    2.346331
     96          1           0       -1.063303    5.069843    1.797335
     97          1           0       -4.418987    3.511919    0.944069
     98          1           0       -4.763743    1.802953    0.915811
     99          1           0       -3.628123    3.120211   -1.498127
    100          1           0       -4.576369    1.669616   -1.391642
    101          1           0       -7.339523    4.132833   -0.644439
 ---------------------------------------------------------------------

 SCF Done:  E(RPBE1PBE) =  -3880.53515445     A.U. after   32 cycles

 The electronic state is 1-A.
 Alpha  occ. eigenvalues -- -256.31236 -89.01616 -30.08268 -25.91085 -25.90758
 Alpha  occ. eigenvalues --  -25.90611 -19.26718 -19.25600 -19.17587 -19.16960
 Alpha  occ. eigenvalues --  -14.44969 -14.39365 -14.37583 -14.37243 -14.37091
 Alpha  occ. eigenvalues --  -14.36376 -10.34549 -10.34385 -10.27948 -10.26873
 Alpha  occ. eigenvalues --  -10.24580 -10.24448 -10.24424 -10.24363 -10.24325
 Alpha  occ. eigenvalues --  -10.24188 -10.23975 -10.23970 -10.23959 -10.23694
 Alpha  occ. eigenvalues --  -10.23207 -10.22996 -10.22875 -10.22586 -10.22525
 Alpha  occ. eigenvalues --  -10.22318 -10.22270 -10.22268 -10.22174 -10.22046
 Alpha  occ. eigenvalues --  -10.21726 -10.21700 -10.21664 -10.21535 -10.21461
 Alpha  occ. eigenvalues --  -10.21457 -10.21365 -10.21269 -10.21092 -10.21039
 Alpha  occ. eigenvalues --  -10.20939 -10.20863 -10.20809 -10.20631 -10.20501
 Alpha  occ. eigenvalues --  -10.20266 -10.19748  -7.99488  -5.93145  -5.92838
 Alpha  occ. eigenvalues --   -5.92320  -3.42697  -2.18673  -2.18080  -2.17868
 Alpha  occ. eigenvalues --   -1.19051  -1.18028  -1.05372  -1.04188  -1.03172
 Alpha  occ. eigenvalues --   -0.97323  -0.96539  -0.95898  -0.94943  -0.91084
 Alpha  occ. eigenvalues --   -0.84415  -0.83882  -0.83640  -0.83359  -0.82829
 Alpha  occ. eigenvalues --   -0.81571  -0.80678  -0.80392  -0.80243  -0.79193
 Alpha  occ. eigenvalues --   -0.78634  -0.77241  -0.76524  -0.75858  -0.74899
 Alpha  occ. eigenvalues --   -0.73928  -0.72873  -0.72160  -0.72148  -0.71283
 Alpha  occ. eigenvalues --   -0.70255  -0.70048  -0.68897  -0.66994  -0.66291
 Alpha  occ. eigenvalues --   -0.66011  -0.65256  -0.64919  -0.64709  -0.62986
 Alpha  occ. eigenvalues --   -0.62600  -0.61782  -0.60183  -0.58805  -0.57086
 Alpha  occ. eigenvalues --   -0.56206  -0.55703  -0.55264  -0.54366  -0.53843
 Alpha  occ. eigenvalues --   -0.53161  -0.52370  -0.52138  -0.51723  -0.51337
 Alpha  occ. eigenvalues --   -0.51165  -0.50614  -0.49160  -0.48811  -0.48585
 Alpha  occ. eigenvalues --   -0.48366  -0.48235  -0.48108  -0.47829  -0.47363
 Alpha  occ. eigenvalues --   -0.46997  -0.46061  -0.45886  -0.45528  -0.45063
 Alpha  occ. eigenvalues --   -0.44845  -0.44730  -0.44445  -0.44268  -0.44180
 Alpha  occ. eigenvalues --   -0.44014  -0.43816  -0.43588  -0.43293  -0.43053
 Alpha  occ. eigenvalues --   -0.43012  -0.42853  -0.42721  -0.42403  -0.42010
 Alpha  occ. eigenvalues --   -0.41897  -0.41570  -0.41422  -0.41114  -0.40792
 Alpha  occ. eigenvalues --   -0.40345  -0.40173  -0.39933  -0.39792  -0.39588
 Alpha  occ. eigenvalues --   -0.39337  -0.39114  -0.38956  -0.38715  -0.38571
 Alpha  occ. eigenvalues --   -0.38220  -0.37965  -0.37698  -0.37540  -0.37290
 Alpha  occ. eigenvalues --   -0.36927  -0.36876  -0.36607  -0.36409  -0.36181
 Alpha  occ. eigenvalues --   -0.35732  -0.35217  -0.34996  -0.34788  -0.34526
 Alpha  occ. eigenvalues --   -0.33533  -0.33085  -0.32846  -0.32564  -0.32439
 Alpha  occ. eigenvalues --   -0.32245  -0.32030  -0.30788  -0.30204  -0.28086
 Alpha  occ. eigenvalues --   -0.27766  -0.27734  -0.27343  -0.26427  -0.25287
 Alpha  occ. eigenvalues --   -0.24623  -0.24203  -0.23646  -0.23189  -0.20336
 Alpha  occ. eigenvalues --   -0.19098  -0.18723  -0.18693  -0.18356  -0.13304
 Alpha virt. eigenvalues --   -0.10781  -0.06130  -0.05928  -0.00894   0.00089
 Alpha virt. eigenvalues --    0.00319   0.01764   0.02036   0.02349   0.02731
 Alpha virt. eigenvalues --    0.03027   0.03774   0.03971   0.04149   0.04668

 Mulliken charges:
               1
     1  C   -0.372939
     2  C    0.135694
     3  N   -0.234481
     4  C   -0.198568
     5  C    0.002249
     6  N    0.073607
     7  C   -0.388533
     8  C   -0.143553
     9  S    0.028521
    10  C   -0.337978
    11  Fe  -0.518177
    12  C   -0.551727
    13  C   -0.492168
    14  C   -0.542265
    15  C   -0.535677
    16  N    0.062186
    17  C    0.264790
    18  C    0.036197
    19  C   -0.094685
    20  C    0.229217
    21  C   -0.398029
    22  C   -0.440292
    23  C   -0.162981
    24  C    0.249617
    25  O   -0.315543
    26  O   -0.305750
    27  N   -0.016696
    28  C    0.356009
    29  C   -0.101454
    30  C    0.081393
    31  C    0.096990
    32  C   -0.366418
    33  C   -0.332451
    34  C   -0.335056
    35  N    0.049243
    36  C    0.375443
    37  C   -0.195203
    38  C    0.150872
    39  C    0.126811
    40  C   -0.361039
    41  C   -0.287380
    42  C   -0.319710
    43  N    0.077863
    44  C    0.322588
    45  C   -0.041432
    46  C   -0.049131
    47  C    0.267090
    48  C   -0.435792
    49  C   -0.249640
    50  C   -0.199180
    51  C    0.224249
    52  O   -0.352943
    53  O   -0.302400
    54  H    0.128829
    55  H    0.150605
    56  H    0.142315
    57  H    0.127396
    58  H    0.138441
    59  H    0.119458
    60  H    0.120432
    61  H    0.131362
    62  H    0.145617
    63  H    0.115256
    64  H    0.148894
    65  H    0.242896
    66  H    0.176302
    67  H    0.168899
    68  H    0.131401
    69  H    0.137017
    70  H    0.123061
    71  H    0.132862
    72  H    0.128092
    73  H    0.133541
    74  H    0.115728
    75  H    0.091164
    76  H    0.130354
    77  H    0.131947
    78  H    0.129402
    79  H    0.139131
    80  H    0.125807
    81  H    0.136165
    82  H    0.124840
    83  H    0.087847
    84  H    0.101445
    85  H    0.144713
    86  H    0.138319
    87  H    0.124241
    88  H    0.109546
    89  H    0.144230
    90  H    0.118206
    91  H    0.126101
    92  H    0.354692
    93  H    0.096854
    94  H    0.139501
    95  H    0.142241
    96  H    0.129770
    97  H    0.113554
    98  H    0.118642
    99  H    0.138887
   100  H    0.125165
   101  H    0.347472
 Sum of Mulliken charges =  -0.00000

 Dipole moment (field-independent basis, Debye):
    X=              2.1046    Y=              0.9166    Z=              2.3454  Tot=              3.2818
 Quadrupole moment (field-independent basis, Debye-Ang):
   XX=           -327.7185   YY=           -308.0006   ZZ=           -316.1148
   XY=            -12.2218   XZ=              6.9253   YZ=             15.3486

  Exact polarizability: 903.233 -52.096 978.600 -41.897 135.842 475.323
 Approx polarizability:1989.984********5791.714-465.5211593.9151178.716

 Normal termination of Gaussian 16 at Sat Oct 22 07:13:38 2022.
