 Gaussian 16, Revision A.03,
 Gaussian 16:  ES64L-G16RevA.03 25-Dec-2016

 ----------------------------------------------------------------------
 # PBE1PBE/def2TZVP empiricaldispersion=GD3BJ scf=maxcycle=999 geom=che
 ck pop=nbo
 ----------------------------------------------------------------------

 ----------
 1cyi_III_H
 ----------
 Structure from the checkpoint file:  "1cyi_III_H.chk"
 Charge =  1 Multiplicity = 6

                         Standard orientation:
 ---------------------------------------------------------------------
 Center     Atomic      Atomic             Coordinates (Angstroms)
 Number     Number       Type             X           Y           Z
 ---------------------------------------------------------------------
      1          6           0        2.941753   -2.017817    4.609241
      2          6           0        1.884142   -1.316219    3.762055
      3          7           0        0.636412   -0.900877    4.108486
      4          6           0        2.067689   -1.128262    2.426675
      5          6           0        0.067600   -0.498718    2.963366
      6          7           0        0.878710   -0.570339    1.950658
      7          6           0       -0.664884    2.911386   -2.722830
      8          6           0        0.386119    1.884299   -3.098036
      9         16           0        0.333944    0.313387   -2.320729
     10          6           0        1.379786   -0.633353   -3.573512
     11         26           0        0.703926   -0.048035   -0.091780
     12          6           0       -2.671478   -0.294585   -0.040042
     13          6           0        1.023665   -3.442275   -0.829414
     14          6           0        4.107684    0.282866   -0.452566
     15          6           0        0.600945    3.190967    1.063833
     16          7           0       -0.580202   -1.533922   -0.291471
     17          6           0       -1.932311   -1.493578   -0.186456
     18          6           0       -2.462843   -2.758176   -0.413169
     19          6           0       -1.457128   -3.615151   -0.747915
     20          6           0       -0.291634   -2.871440   -0.649131
     21          6           0       -1.461695   -5.065156   -1.186274
     22          6           0       -3.947515   -3.054342   -0.279608
     23          6           0       -4.330988   -3.115006    1.187378
     24          6           0       -5.827165   -3.212755    1.388850
     25          8           0       -6.585992   -2.925611    0.455847
     26          8           0       -6.261313   -3.553635    2.493432
     27          7           0        2.258112   -1.274995   -0.634441
     28          6           0        2.210565   -2.645571   -0.838794
     29          6           0        3.503230   -3.153351   -1.067901
     30          6           0        4.417426   -2.121373   -1.023998
     31          6           0        3.595542   -0.967732   -0.782210
     32          6           0        3.715309   -4.679697   -1.219337
     33          6           0        5.836710   -2.140147   -1.163470
     34          6           0        6.413780   -2.250440   -2.419199
     35          7           0        2.047379    1.490460    0.195295
     36          6           0        3.430275    1.430181    0.035720
     37          6           0        4.138017    2.635859    0.527466
     38          6           0        3.088230    3.414536    0.915513
     39          6           0        1.850826    2.712343    0.733234
     40          6           0        5.640438    2.835685    0.894712
     41          6           0        3.234961    4.652823    1.548784
     42          6           0        3.775723    5.839114    0.845934
     43          7           0       -0.686896    1.186443    0.343650
     44          6           0       -0.587988    2.517034    0.803619
     45          6           0       -1.903459    3.149209    0.758678
     46          6           0       -2.740363    2.155125    0.335414
     47          6           0       -2.053832    0.966135    0.138617
     48          6           0       -2.166121    4.607620    1.063835
     49          6           0       -4.199202    2.166281    0.121882
     50          6           0       -4.465445    2.773033   -1.232802
     51          6           0       -5.908176    3.117865   -1.389408
     52          8           0       -6.718485    2.170506   -1.421098
     53          8           0       -6.238600    4.321632   -1.429918
     54          1           0        3.638418   -2.516954    3.968601
     55          1           0        3.459301   -1.294737    5.204388
     56          1           0        2.469142   -2.733723    5.248785
     57          1           0        2.943638   -1.360381    1.857698
     58          1           0       -0.943528   -0.156243    2.891037
     59          1           0       -0.842546    3.560230   -3.554899
     60          1           0       -1.573785    2.411856   -2.459640
     61          1           0       -0.319797    3.486674   -1.889249
     62          1           0        1.313935    2.314627   -2.783591
     63          1           0        0.213990    1.682631   -4.134666
     64          1           0        2.081122   -1.432522   -3.453692
     65          1           0        2.154325   -0.115581   -3.047297
     66          1           0        0.713451   -1.413366   -3.269413
     67          1           0       -3.740041   -0.343821   -0.065520
     68          1           0        1.112441   -4.500468   -0.960743
     69          1           0        5.163262    0.395878   -0.586293
     70          1           0        0.541495    4.141422    1.551685
     71          1           0       -0.604248   -5.255742   -1.797307
     72          1           0       -1.433268   -5.698450   -0.324282
     73          1           0       -2.350795   -5.265489   -1.746870
     74          1           0       -4.102498   -4.034964   -0.678682
     75          1           0       -4.466772   -2.217933   -0.698765
     76          1           0       -4.034163   -2.178575    1.611515
     77          1           0       -3.919618   -4.027741    1.564989
     78          1           0        4.551901   -4.861607   -1.861149
     79          1           0        3.902779   -5.110839   -0.258154
     80          1           0        2.837799   -5.121382   -1.643352
     81          1           0        5.770301   -1.803483   -3.147940
     82          1           0        7.359019   -1.749030   -2.422628
     83          1           0        5.928315    3.844212    0.682817
     84          1           0        5.782723    2.635472    1.936139
     85          1           0        2.969082    6.476870    0.550134
     86          1           0        4.431292    6.373771    1.501123
     87          1           0       -3.086161    4.699244    1.602381
     88          1           0       -2.232552    5.157252    0.148198
     89          1           0       -1.365409    4.997780    1.656740
     90          1           0       -4.618953    2.827515    0.850908
     91          1           0       -4.518693    1.146032    0.078080
     92          1           0       -4.256287    2.009932   -1.953101
     93          1           0       -3.927925    3.697770   -1.261666
     94          1           0       -7.059639   -4.083502    2.552732
     95          1           0       -7.206449    1.982976   -2.226283
     96          1           0        6.557402   -3.283932   -2.656197
     97          1           0        0.230130   -0.896444    5.022223
     98          1           0        4.317458    5.523712   -0.021214
     99          1           0        6.241106    2.164475    0.317153
    100          1           0        2.947017    4.746304    2.575064
    101          1           0        6.458496   -2.068833   -0.295601
 ---------------------------------------------------------------------

 SCF Done:  E(UPBE1PBE) =  -3880.12925823     A.U. after  279 cycles

 Alpha virt. eigenvalues --    0.94145   0.94648   0.94714   0.95124   0.95352
 Alpha virt. eigenvalues --    0.95526   0.95781   0.96208   0.96407   0.96683
 Alpha virt. eigenvalues --    0.96934   0.97251   0.97414   0.97905   0.97986

  Beta  occ. eigenvalues -- -256.51883 -89.14180 -30.26337 -26.10770 -26.09719
  Beta  occ. eigenvalues --  -26.07469 -19.33445 -19.32150 -19.24621 -19.24588
  Beta  occ. eigenvalues --  -14.54685 -14.50158 -14.49816 -14.49479 -14.49361
  Beta  occ. eigenvalues --  -14.48441 -10.42099 -10.41557 -10.37968 -10.36951
  Beta  occ. eigenvalues --  -10.36947 -10.36206 -10.36134 -10.36091 -10.36075
  Beta  occ. eigenvalues --  -10.35860 -10.35692 -10.35487 -10.34151 -10.33889
  Beta  occ. eigenvalues --  -10.33631 -10.33456 -10.33153 -10.32971 -10.32967
  Beta  occ. eigenvalues --  -10.32958 -10.32834 -10.32630 -10.32058 -10.32058
  Beta  occ. eigenvalues --  -10.32049 -10.31807 -10.31288 -10.31242 -10.31217
  Beta  occ. eigenvalues --  -10.30985 -10.30754 -10.30671 -10.30586 -10.30469
  Beta  occ. eigenvalues --  -10.30442 -10.30204 -10.30099 -10.29481 -10.29214
  Beta  occ. eigenvalues --  -10.29189 -10.28635  -8.11918  -6.05732  -6.05243
  Beta  occ. eigenvalues --   -6.04576  -3.56842  -2.33230  -2.32735  -2.28671
  Beta  occ. eigenvalues --   -1.25053  -1.23424  -1.16197  -1.10114  -1.09639
  Beta  occ. eigenvalues --   -1.09260  -1.08876  -1.08435  -1.07583  -1.01191
  Beta  occ. eigenvalues --   -0.95249  -0.94970  -0.93945  -0.93400  -0.93059
  Beta  occ. eigenvalues --   -0.92848  -0.91803  -0.91660  -0.90114  -0.89229
  Beta  occ. eigenvalues --   -0.88358  -0.87977  -0.87518  -0.86015  -0.85909
  Beta  occ. eigenvalues --   -0.84422  -0.82780  -0.82128  -0.81763  -0.81236
  Beta  occ. eigenvalues --   -0.79822  -0.79300  -0.78851  -0.77884  -0.76694
  Beta  occ. eigenvalues --   -0.76262  -0.74702  -0.73615  -0.73122  -0.72491
  Beta  occ. eigenvalues --   -0.72168  -0.71774  -0.69687  -0.69509  -0.69021
  Beta  occ. eigenvalues --   -0.66916  -0.65958  -0.65475  -0.64741  -0.63777
  Beta  occ. eigenvalues --   -0.63046  -0.62400  -0.62029  -0.60368  -0.60202
  Beta  occ. eigenvalues --   -0.60165  -0.59811  -0.59612  -0.59241  -0.58931
  Beta  occ. eigenvalues --   -0.58610  -0.58155  -0.57955  -0.57407  -0.57334
  Beta  occ. eigenvalues --   -0.56869  -0.56804  -0.56097  -0.55836  -0.55121
  Beta  occ. eigenvalues --   -0.55067  -0.54970  -0.54464  -0.54194  -0.54158
  Beta  occ. eigenvalues --   -0.53729  -0.53547  -0.53285  -0.52918  -0.52824
  Beta  occ. eigenvalues --   -0.52201  -0.52082  -0.51882  -0.51731  -0.51613
  Beta  occ. eigenvalues --   -0.51445  -0.51254  -0.51223  -0.50884  -0.50683
  Beta  occ. eigenvalues --   -0.50522  -0.50355  -0.50187  -0.49875  -0.49562
  Beta  occ. eigenvalues --   -0.49363  -0.49292  -0.48757  -0.48530  -0.48155
  Beta  occ. eigenvalues --   -0.47939  -0.47781  -0.47752  -0.47344  -0.47017
  Beta  occ. eigenvalues --   -0.46916  -0.46859  -0.46741  -0.46471  -0.45797
  Beta  occ. eigenvalues --   -0.45204  -0.44838  -0.44622  -0.44220  -0.44018
  Beta  occ. eigenvalues --   -0.43629  -0.43198  -0.42984  -0.42859  -0.41826
  Beta  occ. eigenvalues --   -0.41356  -0.40031  -0.39736  -0.39015  -0.38796
  Beta  occ. eigenvalues --   -0.37627  -0.36749  -0.35160  -0.35015  -0.34694
  Beta  occ. eigenvalues --   -0.34102  -0.33973  -0.33580  -0.32304  -0.30486
  Beta  occ. eigenvalues --   -0.30260  -0.29691
  Beta virt. eigenvalues --   -0.19976  -0.18648  -0.18467  -0.16397  -0.14116
  Beta virt. eigenvalues --   -0.13906  -0.13280  -0.12533  -0.11302  -0.08912
  Beta virt. eigenvalues --   -0.07844  -0.07488  -0.06852  -0.06596  -0.06261

 Mulliken charges and spin densities:
               1          2
     1  C   -0.368886   0.000735
     2  C    0.137341   0.003016
     3  N   -0.213009   0.000890
     4  C   -0.198927   0.001461
     5  C    0.024186  -0.004586
     6  N   -0.022181   0.051953
     7  C   -0.366750   0.000529
     8  C   -0.157967   0.012032
     9  S    0.044640   0.061743
    10  C   -0.605828   0.045015
    11  Fe  -0.358881   3.023556
    12  C   -0.423902  -0.026766
    13  C   -0.497116   0.011062
    14  C   -0.461558   0.025893
    15  C   -0.520716  -0.001097
    16  N    0.092030  -0.069552
    17  C    0.213601   0.013013
    18  C    0.034781   0.003825
    19  C   -0.061093  -0.003348
    20  C    0.194735   0.005527
    21  C   -0.400441  -0.000128
    22  C   -0.236916  -0.000625
    23  C   -0.179729   0.000401
    24  C    0.239863   0.000070
    25  O   -0.360007   0.000026
    26  O   -0.318082   0.000010
    27  N   -0.008871  -0.035797
    28  C    0.236507   0.000758
    29  C   -0.069866   0.038531
    30  C    0.090336  -0.074057
    31  C    0.061118   0.024929
    32  C   -0.363052   0.001038
    33  C   -0.278125   0.977865
    34  C   -0.326135  -0.064351
    35  N    0.003521  -0.050227
    36  C    0.399083  -0.015647
    37  C   -0.205686   0.137048
    38  C    0.132506  -0.135047
    39  C    0.181579   0.037745
    40  C   -0.328219  -0.008545
    41  C   -0.272288   0.943963
    42  C   -0.325417  -0.061222
    43  N    0.089481  -0.055728
    44  C    0.263608   0.019257
    45  C   -0.087252   0.005367
    46  C    0.147242   0.018095
    47  C    0.081146   0.019952
    48  C   -0.368404  -0.000469
    49  C   -0.284282  -0.002066
    50  C   -0.122861   0.001426
    51  C    0.259740   0.000226
    52  O   -0.348145   0.000034
    53  O   -0.334725   0.000163
    54  H    0.147694   0.000056
    55  H    0.151623   0.000088
    56  H    0.139277   0.000145
    57  H    0.158889   0.001129
    58  H    0.160579   0.001357
    59  H    0.159567   0.000663
    60  H    0.113825  -0.000014
    61  H    0.124244  -0.000105
    62  H    0.125987   0.000815
    63  H    0.166463   0.004001
    64  H    0.239524  -0.004482
    65  H    0.226550   0.001801
    66  H    0.235922  -0.000805
    67  H    0.140593   0.001461
    68  H    0.148244  -0.000186
    69  H    0.140559   0.001257
    70  H    0.130912   0.006284
    71  H    0.132948  -0.000024
    72  H    0.157052  -0.000026
    73  H    0.157185  -0.000191
    74  H    0.113196  -0.000231
    75  H    0.130735   0.000092
    76  H    0.125493   0.000064
    77  H    0.129735  -0.000009
    78  H    0.144336  -0.000979
    79  H    0.155550   0.000818
    80  H    0.129638  -0.000182
    81  H    0.131909   0.020049
    82  H    0.138699   0.017751
    83  H    0.151212   0.001422
    84  H    0.152517   0.006338
    85  H    0.145725   0.049604
    86  H    0.142394   0.019676
    87  H    0.153096   0.000105
    88  H    0.161291   0.000417
    89  H    0.136731   0.000007
    90  H    0.126314   0.000658
    91  H    0.108813   0.000113
    92  H    0.108549  -0.000056
    93  H    0.116974  -0.000055
    94  H    0.360965   0.000012
    95  H    0.364638  -0.000003
    96  H    0.142196   0.079316
    97  H    0.253371   0.001773
    98  H    0.136408   0.006548
    99  H    0.136483  -0.000049
   100  H    0.144219  -0.046400
   101  H    0.149451  -0.047921
 Sum of Mulliken charges =   1.00000   5.00000

 Dipole moment (field-independent basis, Debye):
    X=              6.5720    Y=             -4.3771    Z=              6.4264  Tot=             10.1808
 Quadrupole moment (field-independent basis, Debye-Ang):
   XX=           -255.8176   YY=           -260.5659   ZZ=           -279.4928
   XY=             26.5250   XZ=             -3.1293   YZ=             -1.5919

 Summary of Natural Population Analysis:

                                       Natural Population
                Natural  -----------------------------------------------
    Atom  No    Charge         Core      Valence    Rydberg      Total
 -----------------------------------------------------------------------
      C    1   -0.31628      0.99969     2.31367    0.00292     3.31628
      C    2    0.06436      0.99952     1.92725    0.00887     2.93564
      N    3   -0.24213      0.99967     2.73251    0.00995     3.74213
      C    4   -0.04664      0.99944     2.03783    0.00936     3.04664
      C    5    0.09796      0.99964     1.89135    0.01104     2.90204
      N    6   -0.16976      0.99971     2.63958    0.03046     3.66976
      C    7   -0.30234      0.99971     2.29683    0.00580     3.30234
      C    8   -0.28536      0.99968     2.27355    0.01213     3.28536
      S    9    0.36810      4.99898     2.60454    0.02838     7.63190
      C   10   -0.62651      0.99957     2.59387    0.03307     3.62651
     Fe   11    1.58346      8.99479     2.39010    0.03165    11.41654
      C   12   -0.11696      0.99952     2.10976    0.00768     3.11696
      C   13   -0.09806      0.99955     2.09090    0.00761     3.09806
      C   14   -0.09779      0.99951     2.09067    0.00761     3.09779
      C   15   -0.11906      0.99948     2.11153    0.00805     3.11906
      N   16   -0.21943      0.99966     2.69646    0.02331     3.71943
      C   17    0.07721      0.99946     1.91311    0.01022     2.92279
      C   18   -0.00081      0.99941     1.99201    0.00939     3.00081
      C   19   -0.01549      0.99937     2.00769    0.00843     3.01549
      C   20    0.08002      0.99944     1.90957    0.01097     2.91998
      C   21   -0.31712      0.99970     2.31383    0.00360     3.31712
      C   22   -0.20727      0.99968     2.20002    0.00757     3.20727
      C   23   -0.24941      0.99963     2.24160    0.00818     3.24941
      C   24    0.38119      0.99977     1.60029    0.01876     2.61881
      O   25   -0.30309      0.99989     3.29064    0.01256     4.30309
      O   26   -0.32445      0.99979     3.31051    0.01415     4.32445
      N   27   -0.22253      0.99970     2.70193    0.02090     3.72253
      C   28    0.07093      0.99948     1.91854    0.01105     2.92907
      C   29    0.02247      0.99940     1.96982    0.00830     2.97753
      C   30   -0.07053      0.99947     2.06073    0.01033     3.07053
      C   31    0.09172      0.99948     1.89904    0.00977     2.90828
      C   32   -0.31654      0.99970     2.31332    0.00353     3.31654
      C   33    0.40429      0.99961     1.58829    0.00782     2.59571
      C   34   -0.35924      0.99967     2.35243    0.00715     3.35924
      N   35   -0.21367      0.99969     2.68935    0.02464     3.71367
      C   36    0.07156      0.99954     1.91932    0.00959     2.92844
      C   37    0.07617      0.99939     1.91627    0.00817     2.92383
      C   38   -0.11362      0.99945     2.10422    0.00995     3.11362
      C   39    0.11750      0.99950     1.87203    0.01098     2.88250
      C   40   -0.31878      0.99968     2.31565    0.00345     3.31878
      C   41    0.39988      0.99964     1.59333    0.00715     2.60012
      C   42   -0.35539      0.99972     2.34971    0.00596     3.35539
      N   43   -0.21542      0.99965     2.69638    0.01939     3.71542
      C   44    0.10261      0.99950     1.88718    0.01071     2.89739
      C   45    0.00173      0.99944     1.99049    0.00834     2.99827
      C   46   -0.00042      0.99942     1.99169    0.00931     3.00042
      C   47    0.08336      0.99944     1.90755    0.00964     2.91664
      C   48   -0.32004      0.99969     2.31418    0.00617     3.32004
      C   49   -0.20903      0.99964     2.20258    0.00681     3.20903
      C   50   -0.24636      0.99962     2.23829    0.00845     3.24636
      C   51    0.38150      0.99974     1.60034    0.01843     2.61850
      O   52   -0.34252      0.99979     3.32798    0.01474     4.34252
      O   53   -0.28149      0.99989     3.26976    0.01184     4.28149
      H   54    0.11718      0.00000     0.38237    0.00045     0.38282
      H   55    0.11345      0.00000     0.38591    0.00064     0.38655
      H   56    0.11186      0.00000     0.38751    0.00063     0.38814
      H   57    0.11715      0.00000     0.38201    0.00084     0.38285
      H   58    0.10794      0.00000     0.39132    0.00075     0.39206
      H   59    0.11666      0.00000     0.38284    0.00050     0.38334
      H   60    0.10673      0.00000     0.39197    0.00131     0.39327
      H   61    0.10660      0.00000     0.39264    0.00076     0.39340
      H   62    0.11040      0.00000     0.38840    0.00120     0.38960
      H   63    0.13266      0.00000     0.36639    0.00095     0.36734
      H   64    0.19303      0.00000     0.30620    0.00077     0.30697
      H   65    0.19452      0.00000     0.30372    0.00176     0.30548
      H   66    0.19364      0.00000     0.30497    0.00139     0.30636
      H   67    0.11304      0.00000     0.38542    0.00154     0.38696
      H   68    0.11616      0.00000     0.38306    0.00078     0.38384
      H   69    0.11371      0.00000     0.38518    0.00112     0.38629
      H   70    0.11763      0.00000     0.38120    0.00117     0.38237
      H   71    0.11139      0.00000     0.38794    0.00067     0.38861
      H   72    0.11470      0.00000     0.38459    0.00071     0.38530
      H   73    0.11688      0.00000     0.38244    0.00068     0.38312
      H   74    0.11454      0.00000     0.38466    0.00079     0.38546
      H   75    0.11865      0.00000     0.38036    0.00099     0.38135
      H   76    0.11684      0.00000     0.38239    0.00077     0.38316
      H   77    0.11454      0.00000     0.38461    0.00085     0.38546
      H   78    0.11472      0.00000     0.38461    0.00068     0.38528
      H   79    0.11550      0.00000     0.38380    0.00070     0.38450
      H   80    0.10864      0.00000     0.39071    0.00065     0.39136
      H   81    0.12083      0.00000     0.37855    0.00062     0.37917
      H   82    0.12597      0.00000     0.37358    0.00045     0.37403
      H   83    0.11787      0.00000     0.38147    0.00067     0.38213
      H   84    0.11915      0.00000     0.38020    0.00065     0.38085
      H   85    0.14085      0.00000     0.35874    0.00041     0.35915
      H   86    0.12452      0.00000     0.37503    0.00045     0.37548
      H   87    0.11790      0.00000     0.38152    0.00058     0.38210
      H   88    0.11904      0.00000     0.38027    0.00069     0.38096
      H   89    0.11217      0.00000     0.38740    0.00042     0.38783
      H   90    0.11540      0.00000     0.38336    0.00124     0.38460
      H   91    0.11046      0.00000     0.38864    0.00091     0.38954
      H   92    0.11160      0.00000     0.38753    0.00087     0.38840
      H   93    0.11870      0.00000     0.38046    0.00084     0.38130
      H   94    0.26030      0.00000     0.23838    0.00132     0.23970
      H   95    0.26243      0.00000     0.23647    0.00110     0.23757
      H   96    0.15343      0.00000     0.34603    0.00054     0.34657
      H   97    0.21586      0.00000     0.28339    0.00075     0.28414
      H   98    0.11304      0.00000     0.38637    0.00059     0.38696
      H   99    0.11147      0.00000     0.38798    0.00055     0.38853
      H  100    0.08248      0.00000     0.41665    0.00088     0.41752
      H  101    0.08534      0.00000     0.41385    0.00081     0.41466
 =======================================================================
   * Total *    3.00000     64.97323   136.36315    0.66363   202.00000

 Normal termination of Gaussian 16 at Wed Apr  5 20:21:09 2023.
