 Gaussian 16, Revision A.03,
 Gaussian 16:  ES64L-G16RevA.03 25-Dec-2016

 ---------------------------------------------------------------------
 # polar def2tzvp empiricaldispersion=gd3bj int=grid=ultrafine pbe1pbe
 ---------------------------------------------------------------------

 ---------
 1cyo_II_S
 ---------
 Symbolic Z-matrix:
 Charge =  0 Multiplicity = 1

                         Standard orientation:
 ---------------------------------------------------------------------
 Center     Atomic      Atomic             Coordinates (Angstroms)
 Number     Number       Type             X           Y           Z
 ---------------------------------------------------------------------
      1          6           0       -1.962559   -0.036319    5.564935
      2          6           0       -1.551768    0.475254    4.219101
      3          7           0       -1.424686    1.823566    3.903122
      4          6           0       -1.293457   -0.308189    3.116329
      5          6           0       -1.114310    1.842021    2.619173
      6          7           0       -1.015390    0.649205    2.139599
      7          6           0        0.189905   -2.394504   -4.751453
      8          6           0       -0.027358   -1.350459   -3.668995
      9          7           0       -0.375681   -0.041459   -3.942193
     10          6           0       -0.010297   -1.548008   -2.275641
     11          6           0       -0.595972    0.519120   -2.739329
     12          7           0       -0.387956   -0.303755   -1.774543
     13          6           0        2.621510   -0.127597    0.689370
     14          6           0       -1.103885   -3.192100    0.943366
     15          6           0       -4.035885    0.363291   -0.601650
     16          6           0       -0.380271    3.485120   -0.432248
     17          6           0        1.878770   -1.298590    0.771402
     18          6           0        2.416081   -2.648903    1.027135
     19          6           0        1.360932   -3.511410    1.177622
     20          6           0        0.184602   -2.695737    0.977954
     21          6           0        1.404456   -5.008193    1.481740
     22          6           0        3.886876   -3.013139    1.062170
     23          6           0        4.520034   -2.906928   -0.316648
     24          6           0        3.900106   -3.860221   -1.317908
     25          8           0        3.737891   -5.049722   -0.988472
     26          8           0        3.608511   -3.442968   -2.453824
     27          6           0       -2.236614   -2.474055    0.567589
     28          6           0       -3.568317   -3.048068    0.460915
     29          6           0       -4.380757   -2.050293   -0.040942
     30          6           0       -3.553154   -0.872276   -0.165282
     31          6           0       -3.932807   -4.506238    0.740881
     32          6           0       -5.680821   -2.122982   -0.590444
     33          6           0       -6.817362   -2.725408   -0.100259
     34          6           0       -3.295575    1.503889   -0.711375
     35          6           0       -3.859317    2.797227   -1.155075
     36          6           0       -2.812489    3.673735   -1.103454
     37          6           0       -1.643697    2.934192   -0.607519
     38          6           0       -5.326140    3.011580   -1.606043
     39          6           0       -2.815619    5.034126   -1.442452
     40          6           0       -3.856320    5.873357   -1.076683
     41          6           0        0.771452    2.803724   -0.118263
     42          6           0        2.066880    3.402076    0.066415
     43          6           0        2.886037    2.398531    0.425693
     44          6           0        2.131087    1.151173    0.389326
     45          6           0        2.457625    4.857161   -0.148381
     46          6           0        4.312482    2.535824    0.898676
     47          6           0        5.264139    2.421030   -0.267077
     48          6           0        6.708125    2.428947    0.175654
     49          8           0        7.468476    1.563629   -0.305490
     50          8           0        7.087801    3.306065    0.987451
     51          7           0        0.518526   -1.337814    0.686132
     52          7           0       -2.235429   -1.119498    0.192405
     53          7           0       -1.944689    1.598588   -0.399517
     54          7           0        0.813405    1.420864    0.094567
     55         26           0       -0.712757    0.132434    0.153253
     56          1           0        0.169633   -1.922464   -5.711488
     57          1           0        1.139006   -2.866732   -4.606164
     58          1           0       -0.585933   -3.129499   -4.698940
     59          1           0        0.233416   -2.437403   -1.732980
     60          1           0       -0.448242    0.394456   -4.839251
     61          1           0       -0.908366    1.533218   -2.601803
     62          1           0       -1.542362    2.606851    4.513546
     63          1           0       -0.963890    2.734741    2.048800
     64          1           0       -1.303373   -1.374699    3.030550
     65          1           0       -2.053552   -1.101835    5.528934
     66          1           0       -1.223743    0.234253    6.290085
     67          1           0       -2.903952    0.393030    5.837587
     68          1           0       -3.716144    6.589853   -0.294453
     69          1           0       -4.799891    5.804722   -1.576546
     70          1           0       -1.993475    5.434810   -1.997818
     71          1           0       -5.597165    2.253144   -2.310473
     72          1           0       -5.972647    2.955610   -0.755281
     73          1           0       -5.421529    3.974007   -2.063793
     74          1           0       -5.069694    0.419969   -0.871698
     75          1           0       -7.251463   -3.552971   -0.621407
     76          1           0       -7.266694   -2.366107    0.801907
     77          1           0       -5.800254   -1.633568   -1.534430
     78          1           0       -3.633906   -5.113965   -0.087506
     79          1           0       -3.429206   -4.836259    1.625399
     80          1           0       -4.990401   -4.588999    0.880686
     81          1           0       -1.243520   -4.213725    1.229169
     82          1           0        1.771404   -5.535485    0.626046
     83          1           0        2.053028   -5.184264    2.314358
     84          1           0        0.419414   -5.352979    1.717780
     85          1           0        4.401917   -1.905506   -0.674562
     86          1           0        5.564599   -3.123804   -0.234501
     87          1           0        3.989888   -4.017105    1.417616
     88          1           0        4.394954   -2.351208    1.731949
     89          1           0        3.531656   -4.058755   -3.186285
     90          1           0        4.526154    1.762960    1.607142
     91          1           0        4.439735    3.489653    1.366562
     92          1           0        5.065845    1.508017   -0.788601
     93          1           0        5.100143    3.243551   -0.931504
     94          1           0        7.329559    1.247062   -1.201083
     95          1           0        1.973948    5.230411   -1.026811
     96          1           0        2.155090    5.436500    0.698814
     97          1           0        3.518562    4.927615   -0.268164
     98          1           0        3.672354   -0.209668    0.873462
     99          1           0       -0.295447    4.544812   -0.553726
 ---------------------------------------------------------------------

 SCF Done:  E(RPBE1PBE) =  -3627.54006722     A.U. after   23 cycles

 The electronic state is 1-A.
 Alpha  occ. eigenvalues -- -256.30383 -30.07410 -25.90198 -25.89851 -25.89831
 Alpha  occ. eigenvalues --  -19.27264 -19.27010 -19.17578 -19.17482 -14.44835
 Alpha  occ. eigenvalues --  -14.44210 -14.38863 -14.37872 -14.36956 -14.36848
 Alpha  occ. eigenvalues --  -14.36501 -14.36227 -10.35338 -10.34984 -10.27157
 Alpha  occ. eigenvalues --  -10.26910 -10.26842 -10.25813 -10.24697 -10.24031
 Alpha  occ. eigenvalues --  -10.23930 -10.23912 -10.23901 -10.23856 -10.23744
 Alpha  occ. eigenvalues --  -10.23691 -10.23420 -10.23361 -10.23274 -10.23264
 Alpha  occ. eigenvalues --  -10.23207 -10.22887 -10.22506 -10.22193 -10.22082
 Alpha  occ. eigenvalues --  -10.22029 -10.21947 -10.21886 -10.21871 -10.21833
 Alpha  occ. eigenvalues --  -10.21449 -10.21429 -10.21248 -10.21214 -10.21212
 Alpha  occ. eigenvalues --  -10.21169 -10.21143 -10.21139 -10.21064 -10.20977
 Alpha  occ. eigenvalues --  -10.20545 -10.20364 -10.20256 -10.20097  -3.41803
 Alpha  occ. eigenvalues --   -2.17645  -2.17124  -2.17115  -1.17966  -1.17386
 Alpha  occ. eigenvalues --   -1.05816  -1.05786  -1.02767  -1.02387  -0.96522
 Alpha  occ. eigenvalues --   -0.95458  -0.95293  -0.94276  -0.91347  -0.90449
 Alpha  occ. eigenvalues --   -0.83791  -0.83446  -0.83290  -0.82490  -0.81775
 Alpha  occ. eigenvalues --   -0.80631  -0.80534  -0.80303  -0.80069  -0.78786
 Alpha  occ. eigenvalues --   -0.77906  -0.76567  -0.75732  -0.74476  -0.73362
 Alpha  occ. eigenvalues --   -0.72575  -0.72344  -0.71714  -0.71543  -0.70863
 Alpha  occ. eigenvalues --   -0.70036  -0.69707  -0.68739  -0.66666  -0.65459
 Alpha  occ. eigenvalues --   -0.64740  -0.64512  -0.64163  -0.63936  -0.61913
 Alpha  occ. eigenvalues --   -0.61807  -0.61658  -0.60636  -0.58423  -0.56617
 Alpha  occ. eigenvalues --   -0.56210  -0.55811  -0.55087  -0.54262  -0.53629
 Alpha  occ. eigenvalues --   -0.53542  -0.53121  -0.52160  -0.51542  -0.51374
 Alpha  occ. eigenvalues --   -0.50615  -0.50472  -0.50118  -0.49597  -0.48894
 Alpha  occ. eigenvalues --   -0.48364  -0.48264  -0.47823  -0.47627  -0.47553
 Alpha  occ. eigenvalues --   -0.47405  -0.47292  -0.46105  -0.45755  -0.45337
 Alpha  occ. eigenvalues --   -0.44991  -0.44795  -0.44536  -0.44486  -0.44298
 Alpha  occ. eigenvalues --   -0.44126  -0.43724  -0.43586  -0.43262  -0.43182
 Alpha  occ. eigenvalues --   -0.42935  -0.42759  -0.42630  -0.42538  -0.42335
 Alpha  occ. eigenvalues --   -0.42167  -0.41961  -0.41881  -0.41674  -0.41587
 Alpha  occ. eigenvalues --   -0.41025  -0.40817  -0.40470  -0.39938  -0.39690
 Alpha  occ. eigenvalues --   -0.39477  -0.39175  -0.39046  -0.38734  -0.38634
 Alpha  occ. eigenvalues --   -0.38396  -0.38095  -0.38022  -0.37777  -0.37387
 Alpha  occ. eigenvalues --   -0.36938  -0.36729  -0.36180  -0.35909  -0.35669
 Alpha  occ. eigenvalues --   -0.35159  -0.34579  -0.34294  -0.32936  -0.32643
 Alpha  occ. eigenvalues --   -0.32347  -0.32273  -0.32093  -0.31653  -0.31293
 Alpha  occ. eigenvalues --   -0.30991  -0.30016  -0.29025  -0.28100  -0.27820
 Alpha  occ. eigenvalues --   -0.27664  -0.27413  -0.26071  -0.25462  -0.24355
 Alpha  occ. eigenvalues --   -0.23722  -0.23664  -0.22902  -0.19883  -0.19379
 Alpha  occ. eigenvalues --   -0.19121  -0.18332  -0.17948  -0.17174  -0.16720
 Alpha virt. eigenvalues --   -0.08274  -0.07115  -0.05223  -0.04174  -0.00097
 Alpha virt. eigenvalues --    0.00187   0.00569   0.01404   0.01772   0.02342
 Alpha virt. eigenvalues --    0.02722   0.03097   0.03321   0.04036   0.04594

 Mulliken charges:
               1
     1  C   -0.396277
     2  C    0.182503
     3  N   -0.232212
     4  C   -0.203295
     5  C    0.022639
     6  N    0.051182
     7  C   -0.364327
     8  C    0.114812
     9  N   -0.230459
    10  C   -0.173283
    11  C    0.017306
    12  N    0.120907
    13  C   -0.557958
    14  C   -0.560618
    15  C   -0.502302
    16  C   -0.592476
    17  C    0.259547
    18  C   -0.129711
    19  C   -0.056811
    20  C    0.258013
    21  C   -0.426226
    22  C   -0.177237
    23  C   -0.168753
    24  C    0.277820
    25  O   -0.392785
    26  O   -0.319606
    27  C    0.231917
    28  C   -0.057815
    29  C   -0.000686
    30  C    0.275649
    31  C   -0.401607
    32  C   -0.216371
    33  C   -0.363063
    34  C    0.293277
    35  C   -0.114692
    36  C    0.072946
    37  C    0.124790
    38  C   -0.400753
    39  C   -0.204984
    40  C   -0.335609
    41  C    0.293023
    42  C   -0.107004
    43  C    0.053821
    44  C    0.244935
    45  C   -0.415393
    46  C   -0.387974
    47  C   -0.249109
    48  C    0.320169
    49  O   -0.304877
    50  O   -0.369754
    51  N   -0.012620
    52  N    0.033802
    53  N   -0.022071
    54  N    0.013043
    55  Fe  -0.363344
    56  H    0.115186
    57  H    0.121900
    58  H    0.151121
    59  H    0.159049
    60  H    0.235871
    61  H    0.168149
    62  H    0.237206
    63  H    0.174686
    64  H    0.161806
    65  H    0.141815
    66  H    0.132646
    67  H    0.130745
    68  H    0.140404
    69  H    0.137475
    70  H    0.137588
    71  H    0.134686
    72  H    0.145052
    73  H    0.123573
    74  H    0.123934
    75  H    0.137846
    76  H    0.138344
    77  H    0.125178
    78  H    0.133887
    79  H    0.128021
    80  H    0.152007
    81  H    0.092897
    82  H    0.173030
    83  H    0.130795
    84  H    0.119259
    85  H    0.108283
    86  H    0.122017
    87  H    0.122705
    88  H    0.121522
    89  H    0.342080
    90  H    0.132741
    91  H    0.153110
    92  H    0.118450
    93  H    0.130405
    94  H    0.345068
    95  H    0.134629
    96  H    0.141661
    97  H    0.136022
    98  H    0.115081
    99  H    0.122025
 Sum of Mulliken charges =  -0.00000

 Dipole moment (field-independent basis, Debye):
    X=             -0.8150    Y=              0.2630    Z=             -4.6493  Tot=              4.7276
 Quadrupole moment (field-independent basis, Debye-Ang):
   XX=           -357.4462   YY=           -336.8541   ZZ=           -269.0002
   XY=            -20.7717   XZ=            -33.4573   YZ=              6.4800

  Exact polarizability: 877.080  -7.451 846.115  43.399 -57.837 461.877
 Approx polarizability:1542.947 -19.5361604.279 127.300-165.390 731.781

 Normal termination of Gaussian 16 at Sat Feb  4 22:11:04 2023.
