 Gaussian 16, Revision A.03,
 Gaussian 16:  ES64L-G16RevA.03 25-Dec-2016

 ---------------------------------------------------------------------
 # polar def2tzvp empiricaldispersion=gd3bj int=grid=ultrafine pbe1pbe
 ---------------------------------------------------------------------

 ---------
 1drm_II_S
 ---------
 Symbolic Z-matrix:
 Charge =  0 Multiplicity = 1

                         Standard orientation:
 ---------------------------------------------------------------------
 Center     Atomic      Atomic             Coordinates (Angstroms)
 Number     Number       Type             X           Y           Z
 ---------------------------------------------------------------------
      1          6           0       -1.125983   -1.908213    5.402037
      2          6           0       -1.269752   -1.122076    4.118040
      3          7           0       -1.819874    0.142104    4.037763
      4          6           0       -0.874797   -1.422264    2.852370
      5          6           0       -1.739039    0.573139    2.761111
      6          7           0       -1.175562   -0.331450    1.977358
      7         26           0       -0.931035   -0.046217   -0.116740
      8          6           0        2.492034    0.696816    0.075383
      9          6           0       -0.351158   -3.419378   -0.574439
     10          6           0       -4.124527   -0.640162   -1.139055
     11          6           0       -1.598265    3.393057    0.141444
     12          7           0        0.680677   -1.181420   -0.203990
     13          6           0        2.074120   -0.657094   -0.110764
     14          6           0        2.931790   -1.775513   -0.296105
     15          6           0        2.115560   -2.898610   -0.463148
     16          6           0        0.770973   -2.519589   -0.404455
     17          6           0        2.545178   -4.395272   -0.740746
     18          6           0        4.453702   -1.587943   -0.530953
     19          6           0        5.170883   -2.575879    0.091395
     20          6           0        6.542434   -2.608838   -0.435701
     21          8           0        7.407657   -2.515192    0.504849
     22          8           0        6.757819   -2.755088   -1.696621
     23          7           0       -2.025127   -1.592888   -0.626421
     24          6           0       -1.574354   -3.013864   -0.734992
     25          6           0       -2.643312   -3.899302   -0.935963
     26          6           0       -3.730789   -3.187039   -1.123588
     27          6           0       -3.389162   -1.714752   -0.936710
     28          6           0       -2.567728   -5.426915   -0.982053
     29          6           0       -5.053846   -3.882633   -1.401851
     30          6           0       -6.280339   -2.964675   -1.125465
     31          7           0       -2.460740    1.047362   -0.418464
     32          6           0       -3.696922    0.654115   -0.878076
     33          6           0       -4.548552    1.830321   -1.062745
     34          6           0       -3.852821    2.874045   -0.755077
     35          6           0       -2.590385    2.447916   -0.351448
     36          6           0       -6.066029    1.776879   -1.589619
     37          6           0       -4.077295    4.438701   -0.929225
     38          6           0       -5.528216    4.744877   -0.920005
     39          7           0        0.020639    1.606926    0.095710
     40          6           0       -0.380043    3.024684    0.238244
     41          6           0        0.783932    3.928505    0.481487
     42          6           0        1.868835    3.187644    0.550078
     43          6           0        1.494892    1.805878    0.256823
     44          6           0        0.749469    5.377693    0.683040
     45          6           0        3.413067    3.490932    0.888990
     46          6           0        4.244181    3.758784   -0.418572
     47          6           0        5.535184    3.547497   -1.109523
     48          8           0        5.381125    3.835691   -2.292042
     49          8           0        6.156326    2.557024   -0.744689
     50          1           0       -1.430114   -2.920612    5.236351
     51          1           0       -0.104117   -1.890075    5.718834
     52          1           0       -1.742004   -1.470135    6.159339
     53          1           0       -2.213791    0.654527    4.800818
     54          1           0       -2.087282    1.527424    2.425005
     55          1           0       -0.408373   -2.338185    2.554986
     56          1           0        7.422914   -3.166825    1.209648
     57          1           0        4.700282   -3.520579   -0.084604
     58          1           0        5.199637   -2.384304    1.143712
     59          1           0        4.653383   -1.617533   -1.581739
     60          1           0        4.754665   -0.637420   -0.142588
     61          1           0        5.782693    1.682033   -0.872711
     62          1           0        3.572109    3.364849   -1.152080
     63          1           0        4.177127    4.825523   -0.468300
     64          1           0        3.830252    2.650138    1.402724
     65          1           0        3.469866    4.351585    1.522195
     66          1           0       -0.247144    5.680058    0.928471
     67          1           0        1.409582    5.642407    1.482463
     68          1           0        1.060775    5.870120   -0.214460
     69          1           0        3.537261    0.925496    0.085754
     70          1           0        1.949958   -4.795811   -1.534585
     71          1           0        3.577769   -4.424042   -1.019723
     72          1           0        2.398448   -4.978464    0.144272
     73          1           0       -0.162578   -4.472605   -0.567367
     74          1           0       -1.887247    4.385113    0.419320
     75          1           0       -5.112131   -0.773686   -1.528554
     76          1           0       -6.499603    0.832886   -1.333120
     77          1           0       -6.629747    2.563905   -1.133865
     78          1           0       -6.078984    1.898267   -2.652632
     79          1           0       -6.225778    4.042641   -1.326420
     80          1           0       -5.877578    5.668035   -0.506938
     81          1           0       -3.297184    5.163063   -1.037052
     82          1           0       -3.168134   -5.789507   -1.790100
     83          1           0       -1.551940   -5.729494   -1.128751
     84          1           0       -2.930257   -5.829951   -0.059538
     85          1           0       -7.264193   -3.292643   -1.388846
     86          1           0       -6.139517   -2.005750   -0.672110
     87          1           0       -5.133137   -4.891559   -1.749241
 ---------------------------------------------------------------------

 SCF Done:  E(RPBE1PBE) =  -3361.97605911     A.U. after   25 cycles

 The electronic state is 1-A.
 Alpha  occ. eigenvalues -- -256.32722 -30.09679 -25.92607 -25.92184 -25.91905
 Alpha  occ. eigenvalues --  -19.26439 -19.24247 -19.19648 -19.18247 -14.45964
 Alpha  occ. eigenvalues --  -14.41300 -14.39393 -14.38689 -14.38560 -14.37542
 Alpha  occ. eigenvalues --  -10.36326 -10.35117 -10.29478 -10.27759 -10.26839
 Alpha  occ. eigenvalues --  -10.26480 -10.26181 -10.25438 -10.25358 -10.25054
 Alpha  occ. eigenvalues --  -10.24853 -10.24821 -10.24799 -10.24495 -10.24492
 Alpha  occ. eigenvalues --  -10.24385 -10.24215 -10.24040 -10.23994 -10.23344
 Alpha  occ. eigenvalues --  -10.23283 -10.23019 -10.22848 -10.22445 -10.22325
 Alpha  occ. eigenvalues --  -10.22148 -10.22089 -10.22064 -10.22006 -10.21812
 Alpha  occ. eigenvalues --  -10.21758 -10.21753 -10.21692 -10.21648 -10.21590
 Alpha  occ. eigenvalues --  -10.21552 -10.21505 -10.21002  -3.44442  -2.20685
 Alpha  occ. eigenvalues --   -2.19829  -2.19357  -1.17618  -1.15979  -1.06455
 Alpha  occ. eigenvalues --   -1.04171  -1.02434  -0.97699  -0.95670  -0.94613
 Alpha  occ. eigenvalues --   -0.93320  -0.91558  -0.86749  -0.84523  -0.83265
 Alpha  occ. eigenvalues --   -0.82340  -0.82221  -0.81905  -0.81382  -0.80048
 Alpha  occ. eigenvalues --   -0.79050  -0.78460  -0.76510  -0.75279  -0.74916
 Alpha  occ. eigenvalues --   -0.73875  -0.73703  -0.72597  -0.72349  -0.71423
 Alpha  occ. eigenvalues --   -0.70208  -0.69887  -0.68865  -0.67170  -0.66704
 Alpha  occ. eigenvalues --   -0.65661  -0.65426  -0.64193  -0.62975  -0.62691
 Alpha  occ. eigenvalues --   -0.61218  -0.59467  -0.57518  -0.57044  -0.56707
 Alpha  occ. eigenvalues --   -0.55567  -0.55039  -0.54451  -0.53628  -0.52806
 Alpha  occ. eigenvalues --   -0.52450  -0.52313  -0.51271  -0.50960  -0.50508
 Alpha  occ. eigenvalues --   -0.49769  -0.49076  -0.48785  -0.48673  -0.48537
 Alpha  occ. eigenvalues --   -0.48370  -0.47769  -0.47368  -0.47073  -0.46275
 Alpha  occ. eigenvalues --   -0.45718  -0.45348  -0.45108  -0.45002  -0.44545
 Alpha  occ. eigenvalues --   -0.44354  -0.44225  -0.44145  -0.43942  -0.43859
 Alpha  occ. eigenvalues --   -0.43548  -0.43368  -0.42885  -0.42656  -0.42528
 Alpha  occ. eigenvalues --   -0.42213  -0.41884  -0.41129  -0.40918  -0.40645
 Alpha  occ. eigenvalues --   -0.40338  -0.40046  -0.39741  -0.39250  -0.38973
 Alpha  occ. eigenvalues --   -0.38872  -0.38487  -0.38237  -0.38117  -0.37961
 Alpha  occ. eigenvalues --   -0.37261  -0.36993  -0.36746  -0.36264  -0.35520
 Alpha  occ. eigenvalues --   -0.35338  -0.34875  -0.34074  -0.33981  -0.33546
 Alpha  occ. eigenvalues --   -0.33016  -0.32832  -0.32761  -0.32214  -0.31918
 Alpha  occ. eigenvalues --   -0.30884  -0.30615  -0.30153  -0.29489  -0.28908
 Alpha  occ. eigenvalues --   -0.28755  -0.28250  -0.27076  -0.26313  -0.25379
 Alpha  occ. eigenvalues --   -0.24716  -0.23615  -0.22333  -0.21399  -0.20652
 Alpha  occ. eigenvalues --   -0.19444  -0.19234  -0.18015
 Alpha virt. eigenvalues --   -0.08556  -0.06831  -0.05168  -0.04357  -0.03704
 Alpha virt. eigenvalues --   -0.02729  -0.02662   0.00078   0.01127   0.01870
 Alpha virt. eigenvalues --    0.01969   0.02342   0.03096   0.03699   0.04037

 Mulliken charges:
               1
     1  C   -0.360570
     2  C    0.148808
     3  N   -0.221887
     4  C   -0.213888
     5  C    0.021974
     6  N   -0.010110
     7  Fe  -0.176222
     8  C   -0.459536
     9  C   -0.525466
    10  C   -0.481730
    11  C   -0.516401
    12  N   -0.019332
    13  C    0.267015
    14  C   -0.089673
    15  C   -0.014362
    16  C    0.164614
    17  C   -0.402329
    18  C   -0.250580
    19  C   -0.194166
    20  C    0.365260
    21  O   -0.356970
    22  O   -0.366358
    23  N   -0.044083
    24  C    0.315241
    25  C   -0.077035
    26  C    0.058006
    27  C    0.209409
    28  C   -0.402252
    29  C   -0.194969
    30  C   -0.330820
    31  N   -0.025769
    32  C    0.279077
    33  C   -0.094274
    34  C   -0.002958
    35  C    0.243637
    36  C   -0.368620
    37  C   -0.208412
    38  C   -0.289565
    39  N   -0.035803
    40  C    0.303987
    41  C   -0.039634
    42  C   -0.082091
    43  C    0.218685
    44  C   -0.424930
    45  C   -0.118243
    46  C   -0.437652
    47  C    0.298098
    48  O   -0.285807
    49  O   -0.334543
    50  H    0.151058
    51  H    0.148984
    52  H    0.123110
    53  H    0.233755
    54  H    0.172017
    55  H    0.141428
    56  H    0.354821
    57  H    0.106185
    58  H    0.099264
    59  H    0.145481
    60  H    0.061521
    61  H    0.353949
    62  H    0.194044
    63  H    0.127415
    64  H    0.134292
    65  H    0.125153
    66  H    0.119659
    67  H    0.130737
    68  H    0.154902
    69  H    0.041901
    70  H    0.143567
    71  H    0.137192
    72  H    0.131768
    73  H    0.123730
    74  H    0.133446
    75  H    0.132695
    76  H    0.118330
    77  H    0.113897
    78  H    0.150911
    79  H    0.138015
    80  H    0.131381
    81  H    0.157975
    82  H    0.132559
    83  H    0.123015
    84  H    0.152325
    85  H    0.133848
    86  H    0.152117
    87  H    0.136780
 Sum of Mulliken charges =  -0.00000

 Dipole moment (field-independent basis, Debye):
    X=             -4.3367    Y=             -2.7714    Z=             11.8023  Tot=             12.8756
 Quadrupole moment (field-independent basis, Debye-Ang):
   XX=           -311.4339   YY=           -265.5156   ZZ=           -277.1071
   XY=            -15.9704   XZ=             30.1766   YZ=              4.2492

  Exact polarizability: 849.548 -25.717 743.057  53.292  22.586 368.564
 Approx polarizability:1487.239 -76.5901343.448 120.847  81.140 602.555

 Normal termination of Gaussian 16 at Sat Jan  7 14:14:26 2023.
