 Gaussian 16, Revision A.03,
 Gaussian 16:  AM64L-G16RevA.03 25-Dec-2016

 ----------------------------------------------------------------------
 # PBE1PBE/def2TZVP empiricaldispersion=GD3BJ int=(grid=ultrafine) geom
 =check pop=nbo
 ----------------------------------------------------------------------

 ----------
 1drm_III_H
 ----------
 Structure from the checkpoint file:  "1drm_III_H.chk"
 Charge =  1 Multiplicity = 6

                         Standard orientation:
 ---------------------------------------------------------------------
 Center     Atomic      Atomic             Coordinates (Angstroms)
 Number     Number       Type             X           Y           Z
 ---------------------------------------------------------------------
      1          6           0       -1.125983   -1.908213    5.402037
      2          6           0       -1.269752   -1.122076    4.118040
      3          7           0       -1.819874    0.142104    4.037763
      4          6           0       -0.874797   -1.422264    2.852370
      5          6           0       -1.739039    0.573139    2.761111
      6          7           0       -1.175562   -0.331450    1.977358
      7         26           0       -0.931035   -0.046217   -0.116740
      8          6           0        2.492034    0.696816    0.075383
      9          6           0       -0.351158   -3.419378   -0.574439
     10          6           0       -4.124527   -0.640162   -1.139055
     11          6           0       -1.598265    3.393057    0.141444
     12          7           0        0.680677   -1.181420   -0.203990
     13          6           0        2.074120   -0.657094   -0.110764
     14          6           0        2.931790   -1.775513   -0.296105
     15          6           0        2.115560   -2.898610   -0.463148
     16          6           0        0.770973   -2.519589   -0.404455
     17          6           0        2.545178   -4.395272   -0.740746
     18          6           0        4.453702   -1.587943   -0.530953
     19          6           0        5.170883   -2.575879    0.091395
     20          6           0        6.542434   -2.608838   -0.435701
     21          8           0        7.407657   -2.515192    0.504849
     22          8           0        6.757819   -2.755088   -1.696621
     23          7           0       -2.025127   -1.592888   -0.626421
     24          6           0       -1.574354   -3.013864   -0.734992
     25          6           0       -2.643312   -3.899302   -0.935963
     26          6           0       -3.730789   -3.187039   -1.123588
     27          6           0       -3.389162   -1.714752   -0.936710
     28          6           0       -2.567728   -5.426915   -0.982053
     29          6           0       -5.053846   -3.882633   -1.401851
     30          6           0       -6.280339   -2.964675   -1.125465
     31          7           0       -2.460740    1.047362   -0.418464
     32          6           0       -3.696922    0.654115   -0.878076
     33          6           0       -4.548552    1.830321   -1.062745
     34          6           0       -3.852821    2.874045   -0.755077
     35          6           0       -2.590385    2.447916   -0.351448
     36          6           0       -6.066029    1.776879   -1.589619
     37          6           0       -4.077295    4.438701   -0.929225
     38          6           0       -5.528216    4.744877   -0.920005
     39          7           0        0.020639    1.606926    0.095710
     40          6           0       -0.380043    3.024684    0.238244
     41          6           0        0.783932    3.928505    0.481487
     42          6           0        1.868835    3.187644    0.550078
     43          6           0        1.494892    1.805878    0.256823
     44          6           0        0.749469    5.377693    0.683040
     45          6           0        3.413067    3.490932    0.888990
     46          6           0        4.244181    3.758784   -0.418572
     47          6           0        5.535184    3.547497   -1.109523
     48          8           0        5.381125    3.835691   -2.292042
     49          8           0        6.156326    2.557024   -0.744689
     50          1           0       -1.430114   -2.920612    5.236351
     51          1           0       -0.104117   -1.890075    5.718834
     52          1           0       -1.742004   -1.470135    6.159339
     53          1           0       -2.213791    0.654527    4.800818
     54          1           0       -2.087282    1.527424    2.425005
     55          1           0       -0.408373   -2.338185    2.554986
     56          1           0        7.422914   -3.166825    1.209648
     57          1           0        4.700282   -3.520579   -0.084604
     58          1           0        5.199637   -2.384304    1.143712
     59          1           0        4.653383   -1.617533   -1.581739
     60          1           0        4.754665   -0.637420   -0.142588
     61          1           0        5.782693    1.682033   -0.872711
     62          1           0        3.572109    3.364849   -1.152080
     63          1           0        4.177127    4.825523   -0.468300
     64          1           0        3.830252    2.650138    1.402724
     65          1           0        3.469866    4.351585    1.522195
     66          1           0       -0.247144    5.680058    0.928471
     67          1           0        1.409582    5.642407    1.482463
     68          1           0        1.060775    5.870120   -0.214460
     69          1           0        3.537261    0.925496    0.085754
     70          1           0        1.949958   -4.795811   -1.534585
     71          1           0        3.577769   -4.424042   -1.019723
     72          1           0        2.398448   -4.978464    0.144272
     73          1           0       -0.162578   -4.472605   -0.567367
     74          1           0       -1.887247    4.385113    0.419320
     75          1           0       -5.112131   -0.773686   -1.528554
     76          1           0       -6.499603    0.832886   -1.333120
     77          1           0       -6.629747    2.563905   -1.133865
     78          1           0       -6.078984    1.898267   -2.652632
     79          1           0       -6.225778    4.042641   -1.326420
     80          1           0       -5.877578    5.668035   -0.506938
     81          1           0       -3.297184    5.163063   -1.037052
     82          1           0       -3.168134   -5.789507   -1.790100
     83          1           0       -1.551940   -5.729494   -1.128751
     84          1           0       -2.930257   -5.829951   -0.059538
     85          1           0       -7.264193   -3.292643   -1.388846
     86          1           0       -6.139517   -2.005750   -0.672110
     87          1           0       -5.133137   -4.891559   -1.749241
 ---------------------------------------------------------------------

 SCF Done:  E(UPBE1PBE) =  -3361.79464722     A.U. after   41 cycles

 Alpha virt. eigenvalues --    0.50112   0.50594   0.50844   0.51125   0.51330
 Alpha virt. eigenvalues --    0.51368   0.51748   0.52157   0.52511   0.52631
 Alpha virt. eigenvalues --    0.52812   0.52885   0.53439   0.53557   0.53876

  Beta  occ. eigenvalues -- -256.55296 -30.28611 -26.12023 -26.11668 -26.11643
  Beta  occ. eigenvalues --  -19.33359 -19.31725 -19.26934 -19.25778 -14.56040
  Beta  occ. eigenvalues --  -14.51555 -14.50193 -14.49645 -14.49311 -14.49007
  Beta  occ. eigenvalues --  -10.43714 -10.42798 -10.40283 -10.39143 -10.37660
  Beta  occ. eigenvalues --  -10.37591 -10.37042 -10.36920 -10.36764 -10.36604
  Beta  occ. eigenvalues --  -10.36525 -10.35922 -10.35922 -10.35916 -10.35533
  Beta  occ. eigenvalues --  -10.35240 -10.34220 -10.34171 -10.34079 -10.33774
  Beta  occ. eigenvalues --  -10.33759 -10.33712 -10.33253 -10.33177 -10.32999
  Beta  occ. eigenvalues --  -10.32938 -10.32861 -10.32815 -10.32810 -10.32792
  Beta  occ. eigenvalues --  -10.32087 -10.31462 -10.31319 -10.31196 -10.31100
  Beta  occ. eigenvalues --  -10.30948 -10.30006 -10.29952  -3.57850  -2.32685
  Beta  occ. eigenvalues --   -2.32035  -2.31966  -1.25129  -1.22968  -1.16689
  Beta  occ. eigenvalues --   -1.11670  -1.09674  -1.09456  -1.07375  -1.06114
  Beta  occ. eigenvalues --   -1.04887  -1.02011  -0.96113  -0.95493  -0.93953
  Beta  occ. eigenvalues --   -0.93240  -0.92853  -0.92355  -0.91688  -0.90849
  Beta  occ. eigenvalues --   -0.89165  -0.88581  -0.87542  -0.85535  -0.84687
  Beta  occ. eigenvalues --   -0.83744  -0.83187  -0.82603  -0.82442  -0.81337
  Beta  occ. eigenvalues --   -0.79676  -0.78582  -0.78214  -0.77589  -0.75898
  Beta  occ. eigenvalues --   -0.75629  -0.74957  -0.73972  -0.73050  -0.72771
  Beta  occ. eigenvalues --   -0.71147  -0.70527  -0.68198  -0.67681  -0.67064
  Beta  occ. eigenvalues --   -0.66072  -0.65604  -0.64882  -0.63741  -0.63335
  Beta  occ. eigenvalues --   -0.62261  -0.61790  -0.60906  -0.60470  -0.60189
  Beta  occ. eigenvalues --   -0.59436  -0.59004  -0.58581  -0.58408  -0.58318
  Beta  occ. eigenvalues --   -0.58138  -0.57228  -0.56457  -0.55989  -0.55676
  Beta  occ. eigenvalues --   -0.55452  -0.55189  -0.54947  -0.54830  -0.54529
  Beta  occ. eigenvalues --   -0.54327  -0.53921  -0.53865  -0.53603  -0.53597
  Beta  occ. eigenvalues --   -0.53201  -0.52839  -0.52680  -0.52404  -0.52168
  Beta  occ. eigenvalues --   -0.52110  -0.51820  -0.51490  -0.51135  -0.50836
  Beta  occ. eigenvalues --   -0.50651  -0.50414  -0.49809  -0.49498  -0.49341
  Beta  occ. eigenvalues --   -0.48872  -0.48777  -0.48551  -0.48068  -0.47698
  Beta  occ. eigenvalues --   -0.47451  -0.47110  -0.46689  -0.46402  -0.45877
  Beta  occ. eigenvalues --   -0.45838  -0.45528  -0.44974  -0.44453  -0.44337
  Beta  occ. eigenvalues --   -0.43944  -0.43337  -0.42290  -0.42005  -0.40642
  Beta  occ. eigenvalues --   -0.40248  -0.40231  -0.40017  -0.39208  -0.38843
  Beta  occ. eigenvalues --   -0.38099  -0.36893  -0.36395  -0.35696  -0.35240
  Beta  occ. eigenvalues --   -0.34694  -0.33767  -0.32172  -0.31285  -0.29286
  Beta virt. eigenvalues --   -0.22344  -0.20803  -0.19132  -0.17416  -0.17212
  Beta virt. eigenvalues --   -0.16407  -0.14068  -0.13220  -0.12782  -0.10437
  Beta virt. eigenvalues --   -0.09970  -0.09729  -0.09146  -0.07292  -0.06617

 Mulliken charges and spin densities:
               1          2
     1  C   -0.349480   0.001178
     2  C    0.134815   0.005215
     3  N   -0.207377   0.003326
     4  C   -0.205176   0.002854
     5  C    0.029824   0.005478
     6  N   -0.025999   0.070860
     7  Fe   0.023306   4.351395
     8  C   -0.447809  -0.026591
     9  C   -0.517488  -0.026929
    10  C   -0.485607   0.001636
    11  C   -0.502871   0.003643
    12  N   -0.071893   0.058966
    13  C    0.302978   0.048742
    14  C   -0.079454   0.013900
    15  C   -0.006554   0.040422
    16  C    0.189407   0.024794
    17  C   -0.386542  -0.001233
    18  C   -0.247579  -0.000603
    19  C   -0.206400   0.000376
    20  C    0.363602   0.000074
    21  O   -0.348589   0.000066
    22  O   -0.353506   0.000241
    23  N   -0.080723   0.052141
    24  C    0.335807   0.033751
    25  C   -0.083470  -0.006855
    26  C    0.065709   0.044009
    27  C    0.242087  -0.007969
    28  C   -0.386161   0.001785
    29  C   -0.185616  -0.074743
    30  C   -0.295874   0.098763
    31  N   -0.058650   0.071929
    32  C    0.302835  -0.006992
    33  C   -0.090473   0.023222
    34  C    0.000738   0.013100
    35  C    0.255850   0.003920
    36  C   -0.352149   0.000068
    37  C   -0.203816  -0.016047
    38  C   -0.258724   0.023585
    39  N   -0.080211   0.044671
    40  C    0.317034   0.003780
    41  C   -0.028066   0.044962
    42  C   -0.079780   0.000913
    43  C    0.251149   0.064674
    44  C   -0.411528  -0.001497
    45  C   -0.102865   0.000847
    46  C   -0.449493   0.000167
    47  C    0.310615   0.000080
    48  O   -0.272446   0.000149
    49  O   -0.326998   0.000010
    50  H    0.159055   0.000022
    51  H    0.159932   0.000078
    52  H    0.136847   0.000224
    53  H    0.250598   0.001250
    54  H    0.183188   0.000354
    55  H    0.151893   0.000033
    56  H    0.360369  -0.000005
    57  H    0.109754   0.000052
    58  H    0.109170   0.000063
    59  H    0.162637   0.000986
    60  H    0.068993   0.000128
    61  H    0.349286  -0.000004
    62  H    0.189640   0.000036
    63  H    0.143057   0.000033
    64  H    0.142997   0.000024
    65  H    0.142987   0.000249
    66  H    0.129200   0.000488
    67  H    0.147647   0.001302
    68  H    0.173034   0.002770
    69  H    0.068162   0.001428
    70  H    0.155153   0.000763
    71  H    0.153348   0.000353
    72  H    0.148709   0.001637
    73  H    0.147212   0.001250
    74  H    0.159025   0.000358
    75  H    0.147661  -0.000029
    76  H    0.125070   0.000140
    77  H    0.126764   0.000401
    78  H    0.171396   0.000745
    79  H    0.148602  -0.001020
    80  H    0.154410  -0.000995
    81  H    0.171388   0.000777
    82  H    0.147674  -0.000043
    83  H    0.130556  -0.000044
    84  H    0.167799  -0.000136
    85  H    0.158877  -0.004105
    86  H    0.153850  -0.003915
    87  H    0.157674   0.004121
 Sum of Mulliken charges =   1.00000   5.00000

 Dipole moment (field-independent basis, Debye):
    X=             -8.7610    Y=             -2.5692    Z=             11.5986  Tot=             14.7609
 Quadrupole moment (field-independent basis, Debye-Ang):
   XX=           -238.7768   YY=           -209.3652   ZZ=           -259.4345
   XY=            -17.4110   XZ=             35.4093   YZ=              5.8688

 Summary of Natural Population Analysis:

                                       Natural Population
                Natural  -----------------------------------------------
    Atom  No    Charge         Core      Valence    Rydberg      Total
 -----------------------------------------------------------------------
      C    1   -0.32002      0.99969     2.31718    0.00316     3.32002
      C    2    0.06451      0.99953     1.92732    0.00864     2.93549
      N    3   -0.23814      0.99970     2.72872    0.00972     3.73814
      C    4   -0.04024      0.99943     2.03258    0.00822     3.04024
      C    5    0.10653      0.99967     1.88366    0.01014     2.89347
      N    6   -0.15851      0.99971     2.63959    0.01921     3.65851
     Fe    7    2.56583      8.99269     1.42319    0.01829    10.43417
      C    8   -0.12219      0.99953     2.11591    0.00674     3.12219
      C    9   -0.11955      0.99936     2.11194    0.00825     3.11955
      C   10   -0.12202      0.99937     2.11392    0.00873     3.12202
      C   11   -0.11683      0.99927     2.10903    0.00854     3.11683
      N   12   -0.20246      0.99969     2.68511    0.01766     3.70246
      C   13    0.09978      0.99947     1.89172    0.00903     2.90022
      C   14    0.00208      0.99942     1.98920    0.00930     2.99792
      C   15    0.01397      0.99940     1.97876    0.00788     2.98603
      C   16    0.09769      0.99949     1.89279    0.01003     2.90231
      C   17   -0.31789      0.99968     2.31480    0.00341     3.31789
      C   18   -0.20526      0.99955     2.19738    0.00833     3.20526
      C   19   -0.26448      0.99952     2.25442    0.01054     3.26448
      C   20    0.38905      0.99967     1.59510    0.01618     2.61095
      O   21   -0.33714      0.99981     3.32311    0.01422     4.33714
      O   22   -0.27669      0.99991     3.26621    0.01058     4.27669
      N   23   -0.19423      0.99973     2.67657    0.01792     3.69423
      C   24    0.09359      0.99926     1.89754    0.00961     2.90641
      C   25   -0.00715      0.99927     1.99893    0.00895     3.00715
      C   26   -0.00493      0.99928     1.99569    0.00996     3.00493
      C   27    0.09553      0.99943     1.89506    0.00999     2.90447
      C   28   -0.31446      0.99970     2.30878    0.00599     3.31446
      C   29   -0.13260      0.99971     2.12685    0.00604     3.13260
      C   30   -0.12340      0.99975     2.11912    0.00453     3.12340
      N   31   -0.19486      0.99966     2.67770    0.01750     3.69486
      C   32    0.09243      0.99953     1.89818    0.00985     2.90757
      C   33    0.01222      0.99920     1.97962    0.00896     2.98778
      C   34   -0.04021      0.99911     2.02999    0.01111     3.04021
      C   35    0.10022      0.99948     1.89027    0.01003     2.89978
      C   36   -0.31121      0.99967     2.30805    0.00349     3.31121
      C   37   -0.11158      0.99972     2.10564    0.00622     3.11158
      C   38   -0.14938      0.99974     2.14460    0.00504     3.14938
      N   39   -0.21275      0.99973     2.69586    0.01716     3.71275
      C   40    0.08397      0.99927     1.90637    0.01039     2.91603
      C   41    0.02506      0.99935     1.96696    0.00864     2.97494
      C   42   -0.01287      0.99925     2.00402    0.00961     3.01287
      C   43    0.13678      0.99957     1.85511    0.00854     2.86322
      C   44   -0.32191      0.99968     2.31558    0.00664     3.32191
      C   45   -0.20315      0.99963     2.19724    0.00629     3.20315
      C   46   -0.27890      0.99953     2.26888    0.01049     3.27890
      C   47    0.38740      0.99951     1.59409    0.01900     2.61260
      O   48   -0.25321      0.99988     3.24076    0.01257     4.25321
      O   49   -0.34664      0.99975     3.33105    0.01583     4.34664
      H   50    0.12108      0.00000     0.37841    0.00051     0.37892
      H   51    0.11945      0.00000     0.37997    0.00058     0.38055
      H   52    0.11343      0.00000     0.38600    0.00056     0.38657
      H   53    0.21440      0.00000     0.28484    0.00076     0.28560
      H   54    0.11327      0.00000     0.38599    0.00075     0.38673
      H   55    0.11517      0.00000     0.38420    0.00063     0.38483
      H   56    0.25846      0.00000     0.24056    0.00098     0.24154
      H   57    0.12000      0.00000     0.37924    0.00077     0.38000
      H   58    0.10543      0.00000     0.39390    0.00066     0.39457
      H   59    0.13006      0.00000     0.36910    0.00084     0.36994
      H   60    0.09720      0.00000     0.40174    0.00106     0.40280
      H   61    0.26058      0.00000     0.23827    0.00115     0.23942
      H   62    0.12046      0.00000     0.37852    0.00102     0.37954
      H   63    0.11825      0.00000     0.38108    0.00067     0.38175
      H   64    0.10665      0.00000     0.39207    0.00129     0.39335
      H   65    0.11234      0.00000     0.38694    0.00072     0.38766
      H   66    0.11085      0.00000     0.38870    0.00044     0.38915
      H   67    0.11901      0.00000     0.38034    0.00065     0.38099
      H   68    0.12424      0.00000     0.37512    0.00064     0.37576
      H   69    0.11098      0.00000     0.38735    0.00167     0.38902
      H   70    0.11560      0.00000     0.38375    0.00065     0.38440
      H   71    0.11143      0.00000     0.38788    0.00069     0.38857
      H   72    0.11338      0.00000     0.38595    0.00067     0.38662
      H   73    0.11641      0.00000     0.38223    0.00136     0.38359
      H   74    0.12035      0.00000     0.37826    0.00138     0.37965
      H   75    0.12007      0.00000     0.37875    0.00118     0.37993
      H   76    0.10951      0.00000     0.38989    0.00060     0.39049
      H   77    0.10832      0.00000     0.39087    0.00081     0.39168
      H   78    0.11759      0.00000     0.38174    0.00067     0.38241
      H   79    0.09467      0.00000     0.40447    0.00085     0.40533
      H   80    0.10185      0.00000     0.39744    0.00071     0.39815
      H   81    0.11380      0.00000     0.38539    0.00081     0.38620
      H   82    0.11597      0.00000     0.38340    0.00063     0.38403
      H   83    0.11022      0.00000     0.38933    0.00046     0.38978
      H   84    0.11848      0.00000     0.38090    0.00061     0.38152
      H   85    0.10116      0.00000     0.39820    0.00064     0.39884
      H   86    0.09274      0.00000     0.40639    0.00088     0.40726
      H   87    0.11538      0.00000     0.38376    0.00086     0.38462
 =======================================================================
   * Total *    3.00000     56.97096   122.50107    0.52797   180.00000

 Normal termination of Gaussian 16 at Wed Jan 25 20:33:40 2023.
