 Gaussian 16, Revision A.03,
 Gaussian 16:  ES64L-G16RevA.03 25-Dec-2016

 --------------------------------------------------
 # polar def2tzvp empiricaldispersion=gd3bj pbe1pbe
 --------------------------------------------------

 ---------
 1ehb_II_S
 ---------
 Symbolic Z-matrix:
 Charge =  0 Multiplicity = 1

                         Standard orientation:
 ---------------------------------------------------------------------
 Center     Atomic      Atomic             Coordinates (Angstroms)
 Number     Number       Type             X           Y           Z
 ---------------------------------------------------------------------
      1          6           0       -2.131637   -0.044331    5.640119
      2          6           0       -1.686742    0.448758    4.300544
      3          7           0       -1.552855    1.779125    3.978134
      4          6           0       -1.384177   -0.239468    3.169425
      5          6           0       -1.188747    1.857196    2.695580
      6          7           0       -1.074770    0.657041    2.164493
      7          6           0        0.257533   -2.396259   -4.681022
      8          6           0       -0.054715   -1.350203   -3.664109
      9          7           0       -0.273762   -0.022499   -3.956702
     10          6           0       -0.141807   -1.445332   -2.317391
     11          6           0       -0.478391    0.620877   -2.798624
     12          7           0       -0.404225   -0.204674   -1.781650
     13         26           0       -0.728798    0.136234    0.197963
     14          6           0        2.601844   -0.285259    0.818127
     15          6           0       -1.258321   -3.210070    0.824374
     16          6           0       -4.035845    0.490128   -0.586285
     17          6           0       -0.214560    3.493861   -0.296814
     18          7           0        0.403179   -1.393623    0.708955
     19          6           0        1.784226   -1.408179    0.851047
     20          6           0        2.271609   -2.759918    1.056735
     21          6           0        1.182376   -3.557561    1.143883
     22          6           0        0.028657   -2.717280    0.924607
     23          6           0        1.138130   -5.041845    1.471580
     24          6           0        3.728532   -3.210343    1.067336
     25          6           0        4.412504   -3.174056   -0.295282
     26          6           0        3.706235   -4.028916   -1.321671
     27          8           0        3.461334   -5.216697   -1.037119
     28          8           0        3.398723   -3.512954   -2.417947
     29          7           0       -2.305852   -1.088801    0.156548
     30          6           0       -2.350842   -2.445049    0.428953
     31          6           0       -3.689749   -2.979606    0.246501
     32          6           0       -4.481517   -1.951854   -0.059538
     33          6           0       -3.623161   -0.770059   -0.178296
     34          6           0       -4.130864   -4.433068    0.360528
     35          6           0       -5.872224   -2.026925   -0.019348
     36          6           0       -6.699177   -1.793106   -1.104861
     37          7           0       -1.877072    1.664517   -0.338048
     38          6           0       -3.219516    1.619245   -0.697057
     39          6           0       -3.676592    2.915763   -1.159235
     40          6           0       -2.623614    3.776701   -1.045322
     41          6           0       -1.508436    3.002966   -0.516022
     42          6           0       -5.085561    3.251442   -1.645840
     43          6           0       -2.552457    5.101568   -1.453269
     44          6           0       -3.551075    6.065509   -1.277649
     45          7           0        0.850977    1.347323    0.251994
     46          6           0        0.896145    2.716262    0.064370
     47          6           0        2.257090    3.223776    0.301118
     48          6           0        3.057891    2.159305    0.570006
     49          6           0        2.172922    0.996862    0.543003
     50          6           0        2.692901    4.681084    0.333196
     51          6           0        4.570234    2.145375    0.862598
     52          6           0        5.418501    2.249695   -0.400396
     53          6           0        6.896050    2.467609   -0.111073
     54          8           0        7.528615    3.262176   -0.829105
     55          8           0        7.427656    1.842218    0.825966
     56          1           0        7.311744    0.891782    0.895505
     57          1           0        5.308374    1.346622   -0.963630
     58          1           0        5.059380    3.068149   -0.988669
     59          1           0        4.814986    1.234370    1.367639
     60          1           0        4.804593    2.969174    1.503949
     61          1           0        5.417702   -3.524319   -0.186687
     62          1           0        4.434308   -2.162727   -0.644047
     63          1           0        4.273294   -2.577080    1.736000
     64          1           0        3.769808   -4.212604    1.439718
     65          1           0        3.038242   -5.787523   -1.682681
     66          1           0        3.642933   -0.425455    1.021543
     67          1           0        2.041178    5.261958   -0.285466
     68          1           0        2.648207    5.044677    1.338533
     69          1           0        3.695821    4.761530   -0.030920
     70          1           0       -0.061138    4.546270   -0.414279
     71          1           0       -1.424172   -4.239444    1.064754
     72          1           0        1.045875   -5.604416    0.566096
     73          1           0        2.039089   -5.322790    1.975805
     74          1           0        0.298293   -5.242724    2.103420
     75          1           0       -5.069104    0.607905   -0.838086
     76          1           0       -5.709845    2.387272   -1.554305
     77          1           0       -5.487679    4.046338   -1.053099
     78          1           0       -5.045832    3.555787   -2.670874
     79          1           0       -4.040790   -4.909033   -0.593538
     80          1           0       -3.511561   -4.939030    1.071419
     81          1           0       -5.150111   -4.472151    0.683805
     82          1           0       -6.589861   -0.895674   -1.677194
     83          1           0       -7.447595   -2.509834   -1.371453
     84          1           0       -6.331766   -2.282309    0.912586
     85          1           0       -3.293107    7.103463   -1.245980
     86          1           0       -4.572806    5.764796   -1.174999
     87          1           0       -1.654829    5.413016   -1.945371
     88          1           0       -2.125218   -1.114293    5.646499
     89          1           0       -1.465674    0.320838    6.393806
     90          1           0       -3.122403    0.307588    5.838702
     91          1           0       -1.013072    2.772307    2.169642
     92          1           0       -1.385231   -1.305031    3.072087
     93          1           0       -1.701877    2.551733    4.595280
     94          1           0       -0.676074    1.669106   -2.714739
     95          1           0       -0.279197    0.387726   -4.868670
     96          1           0       -0.024559   -2.347617   -1.754333
     97          1           0       -0.654257   -2.792497   -5.076668
     98          1           0        0.831741   -1.963318   -5.473327
     99          1           0        0.819056   -3.183186   -4.222396
 ---------------------------------------------------------------------

 SCF Done:  E(RPBE1PBE) =  -3627.65363663     A.U. after   21 cycles

 The electronic state is 1-A.
 Alpha  occ. eigenvalues -- -256.30141 -30.07143 -25.89941 -25.89588 -25.89557
 Alpha  occ. eigenvalues --  -19.27391 -19.26189 -19.17394 -19.17387 -14.44187
 Alpha  occ. eigenvalues --  -14.43633 -14.38332 -14.38040 -14.36489 -14.36429
 Alpha  occ. eigenvalues --  -14.36422 -14.36350 -10.35198 -10.34662 -10.27246
 Alpha  occ. eigenvalues --  -10.26793 -10.25471 -10.24708 -10.24129 -10.24032
 Alpha  occ. eigenvalues --  -10.23857 -10.23667 -10.23651 -10.23642 -10.23604
 Alpha  occ. eigenvalues --  -10.23434 -10.23327 -10.22954 -10.22944 -10.22714
 Alpha  occ. eigenvalues --  -10.22689 -10.22663 -10.22449 -10.22428 -10.21810
 Alpha  occ. eigenvalues --  -10.21732 -10.21729 -10.21581 -10.21548 -10.21505
 Alpha  occ. eigenvalues --  -10.21489 -10.21345 -10.21306 -10.21293 -10.21204
 Alpha  occ. eigenvalues --  -10.21154 -10.20933 -10.20901 -10.20860 -10.20721
 Alpha  occ. eigenvalues --  -10.20702 -10.20700 -10.20659 -10.20515  -3.41559
 Alpha  occ. eigenvalues --   -2.17419  -2.16890  -2.16842  -1.17874  -1.17050
 Alpha  occ. eigenvalues --   -1.05582  -1.05072  -1.02517  -1.02283  -0.96265
 Alpha  occ. eigenvalues --   -0.95262  -0.95191  -0.94196  -0.90476  -0.90173
 Alpha  occ. eigenvalues --   -0.83983  -0.83260  -0.83193  -0.82702  -0.81954
 Alpha  occ. eigenvalues --   -0.80799  -0.80140  -0.80027  -0.79548  -0.78865
 Alpha  occ. eigenvalues --   -0.78244  -0.76676  -0.75659  -0.74268  -0.73374
 Alpha  occ. eigenvalues --   -0.72224  -0.72082  -0.71411  -0.71192  -0.70814
 Alpha  occ. eigenvalues --   -0.70285  -0.69192  -0.68351  -0.66474  -0.65901
 Alpha  occ. eigenvalues --   -0.64657  -0.64284  -0.64219  -0.63834  -0.61734
 Alpha  occ. eigenvalues --   -0.61505  -0.61382  -0.60784  -0.58136  -0.56520
 Alpha  occ. eigenvalues --   -0.55975  -0.55463  -0.55004  -0.54242  -0.53892
 Alpha  occ. eigenvalues --   -0.53471  -0.52806  -0.52238  -0.51428  -0.51013
 Alpha  occ. eigenvalues --   -0.50844  -0.50584  -0.50189  -0.49405  -0.48652
 Alpha  occ. eigenvalues --   -0.48097  -0.47802  -0.47563  -0.47367  -0.47138
 Alpha  occ. eigenvalues --   -0.46851  -0.46704  -0.46640  -0.45777  -0.45345
 Alpha  occ. eigenvalues --   -0.45050  -0.44493  -0.44295  -0.44151  -0.43732
 Alpha  occ. eigenvalues --   -0.43307  -0.43237  -0.43016  -0.42945  -0.42858
 Alpha  occ. eigenvalues --   -0.42772  -0.42489  -0.42329  -0.42243  -0.42140
 Alpha  occ. eigenvalues --   -0.42048  -0.41919  -0.41876  -0.41718  -0.41702
 Alpha  occ. eigenvalues --   -0.41283  -0.41165  -0.40649  -0.39650  -0.39573
 Alpha  occ. eigenvalues --   -0.39219  -0.39033  -0.38949  -0.38541  -0.38449
 Alpha  occ. eigenvalues --   -0.38235  -0.38028  -0.37858  -0.37570  -0.37211
 Alpha  occ. eigenvalues --   -0.36819  -0.36455  -0.36188  -0.35831  -0.35638
 Alpha  occ. eigenvalues --   -0.35088  -0.34822  -0.34183  -0.33101  -0.32723
 Alpha  occ. eigenvalues --   -0.32652  -0.32464  -0.31945  -0.31598  -0.31308
 Alpha  occ. eigenvalues --   -0.31000  -0.30186  -0.28814  -0.27996  -0.27652
 Alpha  occ. eigenvalues --   -0.27335  -0.26898  -0.26409  -0.25159  -0.24253
 Alpha  occ. eigenvalues --   -0.24045  -0.23439  -0.22872  -0.21658  -0.21217
 Alpha  occ. eigenvalues --   -0.19253  -0.18256  -0.17759  -0.17497  -0.17277
 Alpha virt. eigenvalues --   -0.06486  -0.05940  -0.03811  -0.01982  -0.00978
 Alpha virt. eigenvalues --    0.00750   0.01249   0.01781   0.02306   0.02571
 Alpha virt. eigenvalues --    0.02776   0.03401   0.03756   0.04865   0.05081

 Mulliken charges:
               1
     1  C   -0.385981
     2  C    0.167785
     3  N   -0.223760
     4  C   -0.208414
     5  C    0.021534
     6  N    0.056357
     7  C   -0.386697
     8  C    0.154230
     9  N   -0.225593
    10  C   -0.170970
    11  C    0.017663
    12  N    0.079124
    13  Fe  -0.372518
    14  C   -0.497861
    15  C   -0.571118
    16  C   -0.460921
    17  C   -0.566993
    18  N    0.002911
    19  C    0.300729
    20  C   -0.146496
    21  C    0.009156
    22  C    0.152849
    23  C   -0.396471
    24  C   -0.237837
    25  C   -0.141984
    26  C    0.275034
    27  O   -0.320777
    28  O   -0.391139
    29  N    0.009755
    30  C    0.284746
    31  C   -0.060770
    32  C    0.052483
    33  C    0.228230
    34  C   -0.387347
    35  C   -0.304639
    36  C   -0.281039
    37  N    0.012314
    38  C    0.317618
    39  C   -0.102075
    40  C    0.067891
    41  C    0.089620
    42  C   -0.392381
    43  C   -0.220036
    44  C   -0.275205
    45  N    0.024592
    46  C    0.264721
    47  C   -0.058749
    48  C    0.008841
    49  C    0.312662
    50  C   -0.404057
    51  C   -0.386886
    52  C   -0.245275
    53  C    0.297376
    54  O   -0.343453
    55  O   -0.311926
    56  H    0.346753
    57  H    0.139643
    58  H    0.130380
    59  H    0.085520
    60  H    0.140215
    61  H    0.111646
    62  H    0.122191
    63  H    0.119976
    64  H    0.109119
    65  H    0.341886
    66  H    0.073684
    67  H    0.129897
    68  H    0.138652
    69  H    0.134484
    70  H    0.108078
    71  H    0.095402
    72  H    0.122340
    73  H    0.128773
    74  H    0.133932
    75  H    0.089622
    76  H    0.120757
    77  H    0.123191
    78  H    0.146029
    79  H    0.140343
    80  H    0.120747
    81  H    0.130527
    82  H    0.131125
    83  H    0.134492
    84  H    0.137884
    85  H    0.129354
    86  H    0.119427
    87  H    0.120298
    88  H    0.143234
    89  H    0.132704
    90  H    0.136750
    91  H    0.176878
    92  H    0.146362
    93  H    0.231448
    94  H    0.162794
    95  H    0.230550
    96  H    0.135335
    97  H    0.139043
    98  H    0.119605
    99  H    0.160080
 Sum of Mulliken charges =  -0.00000

 Dipole moment (field-independent basis, Debye):
    X=             -2.9342    Y=             -4.4542    Z=              2.9844  Tot=              6.1119
 Quadrupole moment (field-independent basis, Debye-Ang):
   XX=           -355.7463   YY=           -305.1283   ZZ=           -286.0955
   XY=            -35.8854   XZ=              8.4952   YZ=             11.1610

  Exact polarizability: 802.407 -13.199 789.560  54.419 -55.653 461.958
 Approx polarizability:1369.545 -15.6961479.002 145.490-162.235 734.332

 Normal termination of Gaussian 16 at Sun Apr  2 21:07:25 2023.
