 Gaussian 16, Revision A.03,
 Gaussian 16:  ES64L-G16RevA.03 25-Dec-2016

 ----------------------------------------------------------------------
 # PBE1PBE/def2TZVP empiricaldispersion=GD3BJ scf=maxcycle=999 geom=che
 ck pop=nbo
 ----------------------------------------------------------------------

 ---------
 1eue_II_Q
 ---------
 Structure from the checkpoint file:  "1eue_II_Q.chk"
 Charge =  0 Multiplicity = 5

                         Standard orientation:
 ---------------------------------------------------------------------
 Center     Atomic      Atomic             Coordinates (Angstroms)
 Number     Number       Type             X           Y           Z
 ---------------------------------------------------------------------
      1          6           0       -2.156571   -1.356066    5.434027
      2          6           0       -1.830045   -0.589672    4.193439
      3          7           0       -1.926706    0.782485    4.124473
      4          6           0       -1.441616   -1.008472    2.963848
      5          6           0       -1.607831    1.178085    2.902528
      6          7           0       -1.310003    0.109041    2.182302
      7          6           0        0.428016   -1.680378   -5.057389
      8          6           0       -0.105408   -0.823448   -3.952507
      9          7           0       -0.711598    0.388550   -4.181578
     10          6           0       -0.074633   -0.982207   -2.607050
     11          6           0       -1.033990    0.943230   -3.027673
     12          7           0       -0.660367    0.131175   -2.056446
     13          6           0        2.481324   -0.125900    0.745861
     14          6           0       -1.036117   -3.403080    0.141563
     15          6           0       -4.275878    0.103648   -0.595799
     16          6           0       -0.800886    3.389996    0.120736
     17          6           0        1.813296   -1.333693    0.605690
     18          6           0        2.435531   -2.602683    0.625444
     19          6           0        1.442428   -3.540603    0.477052
     20          6           0        0.203484   -2.827678    0.340823
     21          6           0        1.618297   -4.946531    0.452569
     22          6           0        3.956775   -2.874426    0.770256
     23          6           0        4.633638   -2.694509   -0.625890
     24          6           0        6.123662   -2.911819   -0.692559
     25          8           0        6.809922   -2.078987   -1.375657
     26          8           0        6.617680   -3.928228   -0.090941
     27          6           0       -2.197365   -2.707871   -0.078945
     28          6           0       -3.465669   -3.347054   -0.297117
     29          6           0       -4.405167   -2.410908   -0.506714
     30          6           0       -3.677876   -1.142531   -0.409884
     31          6           0       -3.671541   -4.853894   -0.295479
     32          6           0       -5.832063   -2.673305   -0.785213
     33          6           0       -6.808355   -2.101167    0.223154
     34          6           0       -3.621269    1.294190   -0.518387
     35          6           0       -4.240396    2.596111   -0.708726
     36          6           0       -3.288256    3.538610   -0.486293
     37          6           0       -2.055635    2.802905   -0.169849
     38          6           0       -5.696705    2.895793   -1.082248
     39          6           0       -3.469664    5.042937   -0.547961
     40          6           0       -2.842484    5.885049   -1.395107
     41          6           0        0.386354    2.713422    0.375052
     42          6           0        1.660042    3.373509    0.655674
     43          6           0        2.607608    2.390773    0.825359
     44          6           0        1.879467    1.125740    0.657300
     45          6           0        1.901137    4.875793    0.739793
     46          6           0        4.117161    2.576577    1.126102
     47          6           0        4.984958    2.434626   -0.153966
     48          6           0        6.412742    2.875850    0.060025
     49          8           0        7.126398    2.201502    0.847908
     50          8           0        6.797865    3.911225   -0.551998
     51          7           0        0.430898   -1.455484    0.388917
     52          7           0       -2.311609   -1.338492   -0.131531
     53          7           0       -2.260316    1.413168   -0.204219
     54          7           0        0.507541    1.324862    0.391909
     55         26           0       -0.905896   -0.006929    0.111097
     56          1           0        2.555666    5.086629    1.559574
     57          1           0        2.348351    5.216775   -0.170498
     58          1           0        0.968686    5.378845    0.889371
     59          1           0       -0.762580    4.458982    0.147211
     60          1           0       -1.830834    6.178251   -1.206700
     61          1           0       -3.356719    6.259732   -2.255383
     62          1           0       -4.159569    5.477063    0.145195
     63          1           0       -6.222589    3.242733   -0.217391
     64          1           0       -5.722368    3.649380   -1.841424
     65          1           0       -6.161613    2.004434   -1.448635
     66          1           0       -5.323027    0.125134   -0.814698
     67          1           0       -6.746459   -2.390527    1.251424
     68          1           0       -7.559468   -1.407903   -0.093256
     69          1           0       -6.154410   -3.229437   -1.640613
     70          1           0       -4.108003   -5.153231    0.634466
     71          1           0       -4.323395   -5.125688   -1.099291
     72          1           0       -2.728068   -5.342912   -0.420459
     73          1           0       -1.094785   -4.471299    0.160676
     74          1           0        0.772201   -5.403701   -0.016493
     75          1           0        2.503917   -5.185656   -0.098245
     76          1           0        1.711563   -5.311803    1.453957
     77          1           0        4.170602   -3.377951   -1.306628
     78          1           0        4.430645   -1.699943   -0.964317
     79          1           0        4.111560   -3.874308    1.118361
     80          1           0        4.380717   -2.181771    1.466963
     81          1           0        7.543929   -1.613437   -0.968106
     82          1           0        4.423524    1.838547    1.837687
     83          1           0        4.271326    3.549103    1.544820
     84          1           0        4.982713    1.409510   -0.460611
     85          1           0        4.552821    3.029077   -0.931646
     86          1           0        6.887359    2.136059    1.775366
     87          1           0        3.533863   -0.159071    0.935496
     88          1           0       -0.882000    0.788181   -5.082277
     89          1           0        0.329718   -1.817404   -2.074278
     90          1           0       -1.516151    1.890040   -2.901293
     91          1           0        0.377263   -2.709022   -4.767189
     92          1           0       -0.157515   -1.529531   -5.940168
     93          1           0        1.445687   -1.415271   -5.254781
     94          1           0       -1.593350    2.190318    2.556008
     95          1           0       -2.194918    1.383620    4.877267
     96          1           0       -1.270272   -2.020347    2.661110
     97          1           0       -1.922210   -0.761828    6.292430
     98          1           0       -3.199157   -1.596630    5.440621
     99          1           0       -1.582151   -2.258506    5.457336
 ---------------------------------------------------------------------

 SCF Done:  E(UPBE1PBE) =  -3627.45838139     A.U. after   64 cycles

 Alpha virt. eigenvalues --    1.13257   1.13629   1.14330   1.14476   1.14625
 Alpha virt. eigenvalues --    1.14718   1.15196   1.15260   1.15529   1.15968
 Alpha virt. eigenvalues --    1.16074   1.16559   1.16660   1.17375   1.17492

  Beta  occ. eigenvalues -- -256.40320 -30.14873 -25.98291 -25.98109 -25.97125
  Beta  occ. eigenvalues --  -19.26707 -19.26333 -19.18667 -19.18483 -14.45582
  Beta  occ. eigenvalues --  -14.45222 -14.38868 -14.38411 -14.38404 -14.38017
  Beta  occ. eigenvalues --  -14.37536 -14.37419 -10.36087 -10.35821 -10.28813
  Beta  occ. eigenvalues --  -10.28485 -10.26705 -10.26346 -10.25440 -10.25072
  Beta  occ. eigenvalues --  -10.24990 -10.24651 -10.24646 -10.24368 -10.24098
  Beta  occ. eigenvalues --  -10.24092 -10.23982 -10.23975 -10.23871 -10.23578
  Beta  occ. eigenvalues --  -10.23484 -10.23453 -10.23324 -10.23246 -10.23118
  Beta  occ. eigenvalues --  -10.23096 -10.22375 -10.22360 -10.22329 -10.22125
  Beta  occ. eigenvalues --  -10.22067 -10.21918 -10.21858 -10.21802 -10.21167
  Beta  occ. eigenvalues --  -10.21166 -10.21006 -10.20767 -10.20724 -10.20454
  Beta  occ. eigenvalues --  -10.20217 -10.20214 -10.19692 -10.19534  -3.45331
  Beta  occ. eigenvalues --   -2.21593  -2.21180  -2.17303  -1.16990  -1.15767
  Beta  occ. eigenvalues --   -1.07279  -1.07059  -1.02705  -1.01575  -0.97295
  Beta  occ. eigenvalues --   -0.96127  -0.95807  -0.94798  -0.91590  -0.91159
  Beta  occ. eigenvalues --   -0.83754  -0.83478  -0.82815  -0.82143  -0.81842
  Beta  occ. eigenvalues --   -0.81774  -0.81365  -0.80894  -0.80005  -0.79187
  Beta  occ. eigenvalues --   -0.78695  -0.76485  -0.75138  -0.74508  -0.73562
  Beta  occ. eigenvalues --   -0.73324  -0.73020  -0.72767  -0.71126  -0.70407
  Beta  occ. eigenvalues --   -0.70135  -0.70010  -0.68677  -0.66861  -0.65608
  Beta  occ. eigenvalues --   -0.65303  -0.65178  -0.64505  -0.64387  -0.63004
  Beta  occ. eigenvalues --   -0.62718  -0.61449  -0.60033  -0.58307  -0.57356
  Beta  occ. eigenvalues --   -0.56998  -0.56895  -0.55832  -0.54868  -0.54175
  Beta  occ. eigenvalues --   -0.53778  -0.53220  -0.52343  -0.51371  -0.51185
  Beta  occ. eigenvalues --   -0.50798  -0.50112  -0.49979  -0.49438  -0.48959
  Beta  occ. eigenvalues --   -0.48820  -0.48669  -0.48526  -0.48362  -0.48282
  Beta  occ. eigenvalues --   -0.47718  -0.47631  -0.46895  -0.46105  -0.45677
  Beta  occ. eigenvalues --   -0.45381  -0.44996  -0.44874  -0.44488  -0.44336
  Beta  occ. eigenvalues --   -0.44141  -0.44089  -0.43963  -0.43822  -0.43738
  Beta  occ. eigenvalues --   -0.43559  -0.43355  -0.43260  -0.43050  -0.42868
  Beta  occ. eigenvalues --   -0.42701  -0.42515  -0.42108  -0.41754  -0.41642
  Beta  occ. eigenvalues --   -0.41004  -0.40677  -0.40597  -0.40237  -0.40075
  Beta  occ. eigenvalues --   -0.39753  -0.39473  -0.39232  -0.39106  -0.38997
  Beta  occ. eigenvalues --   -0.38706  -0.38450  -0.38343  -0.37808  -0.37592
  Beta  occ. eigenvalues --   -0.37446  -0.37163  -0.36735  -0.36322  -0.35799
  Beta  occ. eigenvalues --   -0.35386  -0.35004  -0.34840  -0.34370  -0.33576
  Beta  occ. eigenvalues --   -0.33542  -0.33100  -0.32824  -0.32740  -0.31980
  Beta  occ. eigenvalues --   -0.31935  -0.31427  -0.30649  -0.28025  -0.28010
  Beta  occ. eigenvalues --   -0.27624  -0.26942  -0.25511  -0.25424  -0.24952
  Beta  occ. eigenvalues --   -0.24728  -0.24279  -0.23967  -0.23362  -0.19919
  Beta  occ. eigenvalues --   -0.18669  -0.18526  -0.16756
  Beta virt. eigenvalues --   -0.08955  -0.07820  -0.06090  -0.05728  -0.03950
  Beta virt. eigenvalues --   -0.03374  -0.02056  -0.01717  -0.00354   0.00086
  Beta virt. eigenvalues --    0.00513   0.01550   0.02156   0.02254   0.02326

 Mulliken charges and spin densities:
               1          2
     1  C   -0.374441   0.001189
     2  C    0.149356   0.002909
     3  N   -0.217307   0.002884
     4  C   -0.191069   0.002407
     5  C    0.028230   0.005768
     6  N   -0.027509   0.048755
     7  C   -0.372401   0.000839
     8  C    0.108749   0.001577
     9  N   -0.210377   0.002607
    10  C   -0.142031   0.000768
    11  C    0.034758   0.001837
    12  N   -0.110255   0.045063
    13  C   -0.500004  -0.114477
    14  C   -0.600883   0.242027
    15  C   -0.452181  -0.072944
    16  C   -0.619124   0.191785
    17  C    0.326547   0.126110
    18  C   -0.037738  -0.046423
    19  C    0.033266   0.111384
    20  C    0.179797  -0.063704
    21  C   -0.458657  -0.008059
    22  C   -0.356825   0.001824
    23  C   -0.175202  -0.000757
    24  C    0.275302   0.000131
    25  O   -0.356162  -0.000010
    26  O   -0.371722   0.000148
    27  C    0.293543  -0.055537
    28  C   -0.038541   0.142094
    29  C    0.005365  -0.036355
    30  C    0.246799   0.104381
    31  C   -0.379537  -0.009478
    32  C   -0.305350   0.015260
    33  C   -0.353072   0.042724
    34  C    0.320583   0.096906
    35  C   -0.077143  -0.009213
    36  C    0.067029   0.054391
    37  C    0.167368  -0.020511
    38  C   -0.396363   0.000169
    39  C   -0.279516   0.154381
    40  C   -0.374624   0.017735
    41  C    0.328340  -0.022077
    42  C   -0.043776   0.102782
    43  C   -0.040046  -0.027243
    44  C    0.259203   0.137367
    45  C   -0.408590  -0.008503
    46  C   -0.386791  -0.001064
    47  C   -0.179708   0.000925
    48  C    0.298506   0.000322
    49  O   -0.344663   0.000018
    50  O   -0.346121   0.000052
    51  N   -0.059962  -0.026998
    52  N    0.051118  -0.055999
    53  N   -0.008384  -0.000380
    54  N    0.052148  -0.056216
    55  Fe  -0.152416   2.956913
    56  H    0.126786   0.002347
    57  H    0.147925   0.004230
    58  H    0.129621   0.001478
    59  H    0.094278  -0.012138
    60  H    0.131462   0.010404
    61  H    0.136191   0.007679
    62  H    0.131278  -0.014892
    63  H    0.135297   0.000519
    64  H    0.135703   0.000326
    65  H    0.125958  -0.000178
    66  H    0.097682   0.002071
    67  H    0.142003  -0.001463
    68  H    0.134599  -0.000864
    69  H    0.142698  -0.000160
    70  H    0.136845   0.005760
    71  H    0.126033   0.002300
    72  H    0.118728   0.001396
    73  H    0.087367  -0.013614
    74  H    0.124220   0.002874
    75  H    0.138271   0.002642
    76  H    0.143477   0.007284
    77  H    0.131823  -0.000077
    78  H    0.136570   0.000127
    79  H    0.148032  -0.000307
    80  H    0.124166  -0.000597
    81  H    0.354957   0.000010
    82  H    0.117732  -0.000452
    83  H    0.133218  -0.000390
    84  H    0.115531  -0.000078
    85  H    0.132906  -0.000145
    86  H    0.354913   0.000127
    87  H    0.101522   0.004676
    88  H    0.231183   0.002189
    89  H    0.154244   0.001055
    90  H    0.177433   0.001517
    91  H    0.149169   0.000011
    92  H    0.123712   0.000068
    93  H    0.146593   0.000001
    94  H    0.184995   0.000502
    95  H    0.232388   0.002173
    96  H    0.164257   0.000910
    97  H    0.123168   0.000103
    98  H    0.148653   0.000068
    99  H    0.148898   0.000028
 Sum of Mulliken charges =  -0.00000   4.00000

 Dipole moment (field-independent basis, Debye):
    X=             -2.8996    Y=             -0.3492    Z=              2.6850  Tot=              3.9672
 Quadrupole moment (field-independent basis, Debye-Ang):
   XX=           -369.1035   YY=           -359.8107   ZZ=           -263.7502
   XY=             -1.7488   XZ=              6.3170   YZ=             15.0922

 Summary of Natural Population Analysis:

                                       Natural Population
                Natural  -----------------------------------------------
    Atom  No    Charge         Core      Valence    Rydberg      Total
 -----------------------------------------------------------------------
      C    1   -0.31907      0.99969     2.31624    0.00314     3.31907
      C    2    0.05223      0.99955     1.93910    0.00911     2.94777
      N    3   -0.23666      0.99968     2.72708    0.00990     3.73666
      C    4   -0.02920      0.99943     2.02084    0.00894     3.02920
      C    5    0.10370      0.99965     1.88597    0.01068     2.89630
      N    6   -0.15126      0.99972     2.63114    0.02040     3.65126
      C    7   -0.31910      0.99970     2.31626    0.00314     3.31910
      C    8    0.05228      0.99954     1.93900    0.00917     2.94772
      N    9   -0.23671      0.99968     2.72698    0.01006     3.73671
      C   10   -0.03452      0.99943     2.02611    0.00897     3.03452
      C   11    0.09898      0.99966     1.89010    0.01126     2.90102
      N   12   -0.15584      0.99973     2.63598    0.02013     3.65584
      C   13   -0.15353      0.99949     2.14524    0.00880     3.15353
      C   14   -0.06676      0.99946     2.05894    0.00836     3.06676
      C   15   -0.12960      0.99945     2.12155    0.00860     3.12960
      C   16   -0.08953      0.99949     2.08092    0.00912     3.08953
      C   17    0.11014      0.99946     1.88007    0.01033     2.88986
      C   18   -0.02830      0.99941     2.01970    0.00918     3.02830
      C   19    0.02133      0.99949     1.97058    0.00859     2.97867
      C   20    0.06188      0.99951     1.92799    0.01063     2.93812
      C   21   -0.32164      0.99966     2.31459    0.00739     3.32164
      C   22   -0.20255      0.99967     2.19584    0.00704     3.20255
      C   23   -0.25394      0.99961     2.24572    0.00860     3.25394
      C   24    0.38209      0.99974     1.60123    0.01694     2.61791
      O   25   -0.33982      0.99982     3.32637    0.01363     4.33982
      O   26   -0.29546      0.99990     3.28472    0.01083     4.29546
      C   27    0.06125      0.99949     1.92842    0.01084     2.93875
      C   28    0.05973      0.99924     1.92954    0.01149     2.94027
      C   29   -0.06673      0.99936     2.05617    0.01120     3.06673
      C   30    0.12832      0.99951     1.86134    0.01084     2.87168
      C   31   -0.31934      0.99971     2.31604    0.00359     3.31934
      C   32   -0.09329      0.99969     2.08377    0.00983     3.09329
      C   33   -0.18963      0.99976     2.18335    0.00652     3.18963
      C   34    0.09940      0.99947     1.89033    0.01080     2.90060
      C   35   -0.00627      0.99940     1.99827    0.00860     3.00627
      C   36   -0.02618      0.99937     2.01580    0.01102     3.02618
      C   37    0.09210      0.99954     1.89790    0.01046     2.90790
      C   38   -0.31711      0.99970     2.31349    0.00392     3.31711
      C   39   -0.02768      0.99961     2.01594    0.01214     3.02768
      C   40   -0.22704      0.99963     2.21481    0.01260     3.22704
      C   41    0.08443      0.99950     1.90566    0.01040     2.91557
      C   42    0.02698      0.99945     1.96547    0.00809     2.97302
      C   43   -0.02012      0.99943     2.01143    0.00926     3.02012
      C   44    0.12249      0.99950     1.86778    0.01023     2.87751
      C   45   -0.32073      0.99970     2.31737    0.00366     3.32073
      C   46   -0.21061      0.99966     2.20403    0.00692     3.21061
      C   47   -0.25343      0.99963     2.24534    0.00847     3.25343
      C   48    0.38193      0.99973     1.60083    0.01751     2.61807
      O   49   -0.34074      0.99980     3.32615    0.01479     4.34074
      O   50   -0.27929      0.99990     3.26808    0.01131     4.27929
      N   51   -0.21939      0.99970     2.69852    0.02118     3.71939
      N   52   -0.21425      0.99967     2.69278    0.02180     3.71425
      N   53   -0.20616      0.99970     2.68423    0.02223     3.70616
      N   54   -0.21717      0.99968     2.69529    0.02219     3.71717
     Fe   55    1.65077      8.99466     2.32732    0.02726    11.34923
      H   56    0.10891      0.00000     0.39032    0.00076     0.39109
      H   57    0.11425      0.00000     0.38500    0.00075     0.38575
      H   58    0.11020      0.00000     0.38918    0.00063     0.38980
      H   59    0.10712      0.00000     0.39158    0.00130     0.39288
      H   60    0.10126      0.00000     0.39732    0.00141     0.39874
      H   61    0.10517      0.00000     0.39372    0.00111     0.39483
      H   62    0.09582      0.00000     0.40256    0.00162     0.40418
      H   63    0.11094      0.00000     0.38825    0.00081     0.38906
      H   64    0.11299      0.00000     0.38616    0.00085     0.38701
      H   65    0.10706      0.00000     0.39232    0.00062     0.39294
      H   66    0.11510      0.00000     0.38353    0.00138     0.38490
      H   67    0.09630      0.00000     0.40268    0.00103     0.40370
      H   68    0.09318      0.00000     0.40582    0.00101     0.40682
      H   69    0.10329      0.00000     0.39553    0.00118     0.39671
      H   70    0.11324      0.00000     0.38599    0.00077     0.38676
      H   71    0.11087      0.00000     0.38835    0.00078     0.38913
      H   72    0.10627      0.00000     0.39310    0.00063     0.39373
      H   73    0.10346      0.00000     0.39500    0.00154     0.39654
      H   74    0.11086      0.00000     0.38857    0.00057     0.38914
      H   75    0.11273      0.00000     0.38654    0.00073     0.38727
      H   76    0.11556      0.00000     0.38359    0.00085     0.38444
      H   77    0.11984      0.00000     0.37951    0.00065     0.38016
      H   78    0.11006      0.00000     0.38923    0.00070     0.38994
      H   79    0.11699      0.00000     0.38224    0.00077     0.38301
      H   80    0.10634      0.00000     0.39284    0.00082     0.39366
      H   81    0.25888      0.00000     0.23983    0.00129     0.24112
      H   82    0.10079      0.00000     0.39786    0.00135     0.39921
      H   83    0.11027      0.00000     0.38888    0.00085     0.38973
      H   84    0.11002      0.00000     0.38917    0.00081     0.38998
      H   85    0.11977      0.00000     0.37955    0.00068     0.38023
      H   86    0.25647      0.00000     0.24253    0.00100     0.24353
      H   87    0.10339      0.00000     0.39528    0.00133     0.39661
      H   88    0.20769      0.00000     0.29153    0.00078     0.29231
      H   89    0.12010      0.00000     0.37903    0.00087     0.37990
      H   90    0.11409      0.00000     0.38500    0.00092     0.38591
      H   91    0.11757      0.00000     0.38192    0.00051     0.38243
      H   92    0.10765      0.00000     0.39169    0.00066     0.39235
      H   93    0.11245      0.00000     0.38685    0.00070     0.38755
      H   94    0.11631      0.00000     0.38287    0.00082     0.38369
      H   95    0.20804      0.00000     0.29117    0.00078     0.29196
      H   96    0.11914      0.00000     0.38011    0.00075     0.38086
      H   97    0.10754      0.00000     0.39179    0.00066     0.39246
      H   98    0.11303      0.00000     0.38626    0.00070     0.38697
      H   99    0.11761      0.00000     0.38189    0.00050     0.38239
 =======================================================================
   * Total *    2.00002     62.97281   139.37588    0.65129   202.99998

 Normal termination of Gaussian 16 at Mon Feb  6 23:20:54 2023.
