 Gaussian 16, Revision A.03,
 Gaussian 16:  AM64L-G16RevA.03 25-Dec-2016

 ---------------------------------------------------------------------
 # polar def2tzvp empiricaldispersion=gd3bj int=grid=ultrafine pbe1pbe
 ---------------------------------------------------------------------

 ---------
 1eue_II_S
 ---------
 Symbolic Z-matrix:
 Charge =  0 Multiplicity = 1

                         Standard orientation:
 ---------------------------------------------------------------------
 Center     Atomic      Atomic             Coordinates (Angstroms)
 Number     Number       Type             X           Y           Z
 ---------------------------------------------------------------------
      1          6           0       -2.156571   -1.356066    5.434027
      2          6           0       -1.830045   -0.589672    4.193439
      3          7           0       -1.926706    0.782485    4.124473
      4          6           0       -1.441616   -1.008472    2.963848
      5          6           0       -1.607831    1.178085    2.902528
      6          7           0       -1.310003    0.109041    2.182302
      7          6           0        0.428016   -1.680378   -5.057389
      8          6           0       -0.105408   -0.823448   -3.952507
      9          7           0       -0.711598    0.388550   -4.181578
     10          6           0       -0.074633   -0.982207   -2.607050
     11          6           0       -1.033990    0.943230   -3.027673
     12          7           0       -0.660367    0.131175   -2.056446
     13          6           0        2.481324   -0.125900    0.745861
     14          6           0       -1.036117   -3.403080    0.141563
     15          6           0       -4.275878    0.103648   -0.595799
     16          6           0       -0.800886    3.389996    0.120736
     17          6           0        1.813296   -1.333693    0.605690
     18          6           0        2.435531   -2.602683    0.625444
     19          6           0        1.442428   -3.540603    0.477052
     20          6           0        0.203484   -2.827678    0.340823
     21          6           0        1.618297   -4.946531    0.452569
     22          6           0        3.956775   -2.874426    0.770256
     23          6           0        4.633638   -2.694509   -0.625890
     24          6           0        6.123662   -2.911819   -0.692559
     25          8           0        6.809922   -2.078987   -1.375657
     26          8           0        6.617680   -3.928228   -0.090941
     27          6           0       -2.197365   -2.707871   -0.078945
     28          6           0       -3.465669   -3.347054   -0.297117
     29          6           0       -4.405167   -2.410908   -0.506714
     30          6           0       -3.677876   -1.142531   -0.409884
     31          6           0       -3.671541   -4.853894   -0.295479
     32          6           0       -5.832063   -2.673305   -0.785213
     33          6           0       -6.808355   -2.101167    0.223154
     34          6           0       -3.621269    1.294190   -0.518387
     35          6           0       -4.240396    2.596111   -0.708726
     36          6           0       -3.288256    3.538610   -0.486293
     37          6           0       -2.055635    2.802905   -0.169849
     38          6           0       -5.696705    2.895793   -1.082248
     39          6           0       -3.469664    5.042937   -0.547961
     40          6           0       -2.842484    5.885049   -1.395107
     41          6           0        0.386354    2.713422    0.375052
     42          6           0        1.660042    3.373509    0.655674
     43          6           0        2.607608    2.390773    0.825359
     44          6           0        1.879467    1.125740    0.657300
     45          6           0        1.901137    4.875793    0.739793
     46          6           0        4.117161    2.576577    1.126102
     47          6           0        4.984958    2.434626   -0.153966
     48          6           0        6.412742    2.875850    0.060025
     49          8           0        7.126398    2.201502    0.847908
     50          8           0        6.797865    3.911225   -0.551998
     51          7           0        0.430898   -1.455484    0.388917
     52          7           0       -2.311609   -1.338492   -0.131531
     53          7           0       -2.260316    1.413168   -0.204219
     54          7           0        0.507541    1.324862    0.391909
     55         26           0       -0.905896   -0.006929    0.111097
     56          1           0        2.555666    5.086629    1.559574
     57          1           0        2.348351    5.216775   -0.170498
     58          1           0        0.968686    5.378845    0.889371
     59          1           0       -0.762580    4.458982    0.147211
     60          1           0       -1.830834    6.178251   -1.206700
     61          1           0       -3.356719    6.259732   -2.255383
     62          1           0       -4.159569    5.477063    0.145195
     63          1           0       -6.222589    3.242733   -0.217391
     64          1           0       -5.722368    3.649380   -1.841424
     65          1           0       -6.161613    2.004434   -1.448635
     66          1           0       -5.323027    0.125134   -0.814698
     67          1           0       -6.746459   -2.390527    1.251424
     68          1           0       -7.559468   -1.407903   -0.093256
     69          1           0       -6.154410   -3.229437   -1.640613
     70          1           0       -4.108003   -5.153231    0.634466
     71          1           0       -4.323395   -5.125688   -1.099291
     72          1           0       -2.728068   -5.342912   -0.420459
     73          1           0       -1.094785   -4.471299    0.160676
     74          1           0        0.772201   -5.403701   -0.016493
     75          1           0        2.503917   -5.185656   -0.098245
     76          1           0        1.711563   -5.311803    1.453957
     77          1           0        4.170602   -3.377951   -1.306628
     78          1           0        4.430645   -1.699943   -0.964317
     79          1           0        4.111560   -3.874308    1.118361
     80          1           0        4.380717   -2.181771    1.466963
     81          1           0        7.543929   -1.613437   -0.968106
     82          1           0        4.423524    1.838547    1.837687
     83          1           0        4.271326    3.549103    1.544820
     84          1           0        4.982713    1.409510   -0.460611
     85          1           0        4.552821    3.029077   -0.931646
     86          1           0        6.887359    2.136059    1.775366
     87          1           0        3.533863   -0.159071    0.935496
     88          1           0       -0.882000    0.788181   -5.082277
     89          1           0        0.329718   -1.817404   -2.074278
     90          1           0       -1.516151    1.890040   -2.901293
     91          1           0        0.377263   -2.709022   -4.767189
     92          1           0       -0.157515   -1.529531   -5.940168
     93          1           0        1.445687   -1.415271   -5.254781
     94          1           0       -1.593350    2.190318    2.556008
     95          1           0       -2.194918    1.383620    4.877267
     96          1           0       -1.270272   -2.020347    2.661110
     97          1           0       -1.922210   -0.761828    6.292430
     98          1           0       -3.199157   -1.596630    5.440621
     99          1           0       -1.582151   -2.258506    5.457336
 ---------------------------------------------------------------------

 SCF Done:  E(RPBE1PBE) =  -3627.48517288     A.U. after   25 cycles

 The electronic state is 1-A.
 Alpha  occ. eigenvalues -- -256.30679 -30.07620 -25.90463 -25.90097 -25.89973
 Alpha  occ. eigenvalues --  -19.26478 -19.26052 -19.18442 -19.18189 -14.44521
 Alpha  occ. eigenvalues --  -14.44321 -14.38426 -14.37975 -14.37123 -14.36816
 Alpha  occ. eigenvalues --  -14.36807 -14.36293 -10.35779 -10.35588 -10.27569
 Alpha  occ. eigenvalues --  -10.27487 -10.25710 -10.25453 -10.24571 -10.24474
 Alpha  occ. eigenvalues --  -10.24456 -10.24435 -10.24400 -10.24292 -10.24140
 Alpha  occ. eigenvalues --  -10.23776 -10.23506 -10.23440 -10.23332 -10.23000
 Alpha  occ. eigenvalues --  -10.22993 -10.22936 -10.22845 -10.22815 -10.22716
 Alpha  occ. eigenvalues --  -10.22674 -10.22628 -10.22573 -10.22475 -10.22466
 Alpha  occ. eigenvalues --  -10.22379 -10.21862 -10.21432 -10.21420 -10.21336
 Alpha  occ. eigenvalues --  -10.21223 -10.21159 -10.21116 -10.21070 -10.20990
 Alpha  occ. eigenvalues --  -10.20861 -10.20678 -10.20647 -10.20002  -3.42084
 Alpha  occ. eigenvalues --   -2.17990  -2.17453  -2.17265  -1.16762  -1.15484
 Alpha  occ. eigenvalues --   -1.06248  -1.06175  -1.02486  -1.01284  -0.96456
 Alpha  occ. eigenvalues --   -0.95280  -0.95151  -0.94089  -0.90520  -0.90223
 Alpha  occ. eigenvalues --   -0.83340  -0.83002  -0.82700  -0.82265  -0.81522
 Alpha  occ. eigenvalues --   -0.81262  -0.81063  -0.80635  -0.79955  -0.79203
 Alpha  occ. eigenvalues --   -0.78297  -0.77433  -0.75291  -0.74529  -0.73384
 Alpha  occ. eigenvalues --   -0.72546  -0.72441  -0.72266  -0.71326  -0.70408
 Alpha  occ. eigenvalues --   -0.69811  -0.69564  -0.68438  -0.66513  -0.65095
 Alpha  occ. eigenvalues --   -0.64537  -0.64447  -0.64241  -0.64069  -0.62003
 Alpha  occ. eigenvalues --   -0.61835  -0.61542  -0.61168  -0.58286  -0.56547
 Alpha  occ. eigenvalues --   -0.56299  -0.56115  -0.55609  -0.54572  -0.54176
 Alpha  occ. eigenvalues --   -0.53463  -0.52739  -0.52090  -0.51079  -0.50928
 Alpha  occ. eigenvalues --   -0.50504  -0.49786  -0.49705  -0.49116  -0.48702
 Alpha  occ. eigenvalues --   -0.48059  -0.47930  -0.47827  -0.47774  -0.47688
 Alpha  occ. eigenvalues --   -0.47430  -0.47318  -0.46517  -0.46136  -0.45535
 Alpha  occ. eigenvalues --   -0.45311  -0.45191  -0.45060  -0.44628  -0.44120
 Alpha  occ. eigenvalues --   -0.43936  -0.43676  -0.43533  -0.43311  -0.43248
 Alpha  occ. eigenvalues --   -0.43174  -0.43023  -0.42968  -0.42948  -0.42823
 Alpha  occ. eigenvalues --   -0.42577  -0.42308  -0.42232  -0.42042  -0.41450
 Alpha  occ. eigenvalues --   -0.40796  -0.40605  -0.40292  -0.39919  -0.39736
 Alpha  occ. eigenvalues --   -0.39344  -0.39160  -0.38976  -0.38852  -0.38650
 Alpha  occ. eigenvalues --   -0.38411  -0.38171  -0.38107  -0.37307  -0.37106
 Alpha  occ. eigenvalues --   -0.36753  -0.36693  -0.36387  -0.35943  -0.35365
 Alpha  occ. eigenvalues --   -0.35091  -0.34626  -0.34531  -0.33337  -0.32574
 Alpha  occ. eigenvalues --   -0.32527  -0.32258  -0.31845  -0.31824  -0.31466
 Alpha  occ. eigenvalues --   -0.31004  -0.29968  -0.29338  -0.27874  -0.27732
 Alpha  occ. eigenvalues --   -0.27431  -0.27199  -0.25239  -0.25112  -0.24219
 Alpha  occ. eigenvalues --   -0.24000  -0.23671  -0.23000  -0.20318  -0.19819
 Alpha  occ. eigenvalues --   -0.19498  -0.18425  -0.18029  -0.17801  -0.17621
 Alpha virt. eigenvalues --   -0.08508  -0.07141  -0.06157  -0.05169  -0.01799
 Alpha virt. eigenvalues --   -0.01567  -0.00044   0.00553   0.02013   0.02467
 Alpha virt. eigenvalues --    0.02900   0.02956   0.03181   0.03794   0.04601

 Mulliken charges:
               1
     1  C   -0.376533
     2  C    0.153669
     3  N   -0.223251
     4  C   -0.194080
     5  C    0.019898
     6  N   -0.002999
     7  C   -0.373480
     8  C    0.112698
     9  N   -0.215896
    10  C   -0.145036
    11  C    0.027714
    12  N   -0.087846
    13  C   -0.528260
    14  C   -0.551939
    15  C   -0.477657
    16  C   -0.562780
    17  C    0.343230
    18  C   -0.046625
    19  C    0.037993
    20  C    0.161214
    21  C   -0.458303
    22  C   -0.356949
    23  C   -0.174036
    24  C    0.275205
    25  O   -0.356276
    26  O   -0.372732
    27  C    0.274982
    28  C   -0.021449
    29  C   -0.010472
    30  C    0.262047
    31  C   -0.378250
    32  C   -0.297693
    33  C   -0.344154
    34  C    0.331687
    35  C   -0.079467
    36  C    0.056676
    37  C    0.150953
    38  C   -0.398054
    39  C   -0.259734
    40  C   -0.327849
    41  C    0.295612
    42  C   -0.033403
    43  C   -0.050683
    44  C    0.276766
    45  C   -0.411356
    46  C   -0.387322
    47  C   -0.177586
    48  C    0.298555
    49  O   -0.344823
    50  O   -0.347833
    51  N   -0.039570
    52  N    0.057817
    53  N    0.010488
    54  N    0.055813
    55  Fe  -0.271373
    56  H    0.128765
    57  H    0.148647
    58  H    0.125259
    59  H    0.087054
    60  H    0.142834
    61  H    0.146407
    62  H    0.139741
    63  H    0.136034
    64  H    0.132197
    65  H    0.128417
    66  H    0.093099
    67  H    0.144220
    68  H    0.135145
    69  H    0.143272
    70  H    0.139762
    71  H    0.126605
    72  H    0.118867
    73  H    0.089580
    74  H    0.121827
    75  H    0.139277
    76  H    0.144411
    77  H    0.131077
    78  H    0.136184
    79  H    0.146195
    80  H    0.122861
    81  H    0.354334
    82  H    0.116818
    83  H    0.130970
    84  H    0.115695
    85  H    0.131417
    86  H    0.354920
    87  H    0.100842
    88  H    0.227886
    89  H    0.148060
    90  H    0.168843
    91  H    0.146851
    92  H    0.121286
    93  H    0.144658
    94  H    0.174740
    95  H    0.228883
    96  H    0.155332
    97  H    0.121115
    98  H    0.145427
    99  H    0.146920
 Sum of Mulliken charges =  -0.00000

 Dipole moment (field-independent basis, Debye):
    X=             -4.4402    Y=              1.3478    Z=              2.0863  Tot=              5.0877
 Quadrupole moment (field-independent basis, Debye-Ang):
   XX=           -363.0204   YY=           -341.9206   ZZ=           -267.0402
   XY=             -6.4516   XZ=              8.7412   YZ=             12.2167

  Exact polarizability: 853.914   6.516 794.918  27.464 -28.235 450.067
 Approx polarizability:1443.050  -4.2481508.477  94.429 -47.247 714.495

 Normal termination of Gaussian 16 at Sun Feb  5 09:34:02 2023.
