 Gaussian 16, Revision A.03,
 Gaussian 16:  ES64L-G16RevA.03 25-Dec-2016

 ---------------------------------------------------------------------
 # polar def2tzvp empiricaldispersion=gd3bj int=grid=ultrafine pbe1pbe
 ---------------------------------------------------------------------

 ---------
 1f1c_II_S
 ---------
 Symbolic Z-matrix:
 Charge =  0 Multiplicity = 1

                         Standard orientation:
 ---------------------------------------------------------------------
 Center     Atomic      Atomic             Coordinates (Angstroms)
 Number     Number       Type             X           Y           Z
 ---------------------------------------------------------------------
      1          6           0        2.551255   -2.130370    4.876773
      2          6           0        1.650938   -1.485267    3.874582
      3          7           0        0.364289   -1.092193    4.176306
      4          6           0        1.816836   -1.238250    2.552357
      5          6           0       -0.223007   -0.640455    3.082174
      6          7           0        0.636336   -0.718250    2.075670
      7          6           0        0.636726    3.418152   -4.485266
      8          6           0        0.779179    2.192340   -3.624389
      9          7           0        1.458397    1.062916   -4.035916
     10          6           0        0.327648    1.917668   -2.377018
     11          6           0        1.414251    0.148794   -3.078539
     12          7           0        0.735400    0.637792   -2.053542
     13         26           0        0.768103   -0.039259    0.029596
     14          6           0       -2.628643   -0.047628   -0.028444
     15          6           0        0.751890   -3.469574   -0.678998
     16          6           0        4.167631   -0.117307   -0.154649
     17          6           0        0.794094    3.137647    1.186437
     18          7           0       -0.619882   -1.417130   -0.349205
     19          6           0       -1.977192   -1.241080   -0.345085
     20          6           0       -2.629237   -2.501911   -0.577782
     21          6           0       -1.702544   -3.443020   -0.757571
     22          6           0       -0.457756   -2.784941   -0.572247
     23          6           0       -1.879632   -4.862494   -1.272410
     24          6           0       -4.100290   -2.736725   -0.653503
     25          6           0       -4.570678   -2.957052    0.760961
     26          6           0       -6.001751   -3.409627    0.806000
     27          8           0       -6.632078   -3.475479   -0.266631
     28          8           0       -6.496317   -3.697389    1.909630
     29          7           0        2.141990   -1.448090   -0.356183
     30          6           0        1.964567   -2.830640   -0.598880
     31          6           0        3.196240   -3.478808   -0.904116
     32          6           0        4.138460   -2.514393   -0.891824
     33          6           0        3.503401   -1.279904   -0.488136
     34          6           0        3.434235   -4.955848   -1.170757
     35          6           0        5.475266   -2.692701   -1.247479
     36          6           0        5.851373   -3.068074   -2.551233
     37          7           0        2.162224    1.218732    0.462113
     38          6           0        3.529361    1.026803    0.349277
     39          6           0        4.250373    2.178849    0.773326
     40          6           0        3.328497    3.132189    1.096083
     41          6           0        2.016096    2.498478    0.942057
     42          6           0        5.765875    2.302459    0.916179
     43          6           0        3.631381    4.413453    1.626621
     44          6           0        4.424838    5.354822    0.903478
     45          7           0       -0.618909    1.289306    0.425140
     46          6           0       -0.441577    2.585368    0.854214
     47          6           0       -1.685963    3.258268    1.007297
     48          6           0       -2.638506    2.367261    0.666619
     49          6           0       -1.981758    1.132045    0.332494
     50          6           0       -1.906983    4.642727    1.658487
     51          6           0       -4.144146    2.629521    0.557890
     52          6           0       -4.544383    3.157954   -0.818751
     53          6           0       -6.051420    3.347530   -0.966532
     54          8           0       -6.795814    2.350228   -0.972750
     55          8           0       -6.498346    4.506635   -1.072354
     56          1           0        1.603364    3.735732   -4.816405
     57          1           0        0.026485    3.189106   -5.333820
     58          1           0        0.179028    4.201319   -3.917761
     59          1           0       -0.242692    2.574373   -1.753840
     60          1           0        1.913095    0.952268   -4.919662
     61          1           0        1.855079   -0.825013   -3.126176
     62          1           0       -1.225882   -0.272821    3.019025
     63          1           0        2.705084   -1.415627    1.982748
     64          1           0       -0.058236   -1.141275    5.081328
     65          1           0        2.743954   -3.141456    4.584418
     66          1           0        3.474222   -1.591308    4.926202
     67          1           0        2.080526   -2.120463    5.837614
     68          1           0       -3.954962   -3.701333    1.221221
     69          1           0       -4.477342   -2.041084    1.306113
     70          1           0       -4.303521   -3.603481   -1.247078
     71          1           0       -4.587347   -1.881444   -1.073229
     72          1           0       -6.676400   -4.305375   -0.747158
     73          1           0       -6.576146    1.583957   -0.437798
     74          1           0       -4.209686    2.466515   -1.563593
     75          1           0       -4.061545    4.099109   -0.979981
     76          1           0       -4.669041    1.715885    0.744046
     77          1           0       -4.424881    3.347902    1.299521
     78          1           0       -3.697960   -0.038443   -0.065547
     79          1           0        0.734743   -4.528947   -0.828445
     80          1           0       -1.811233   -5.549515   -0.454961
     81          1           0       -2.838613   -4.956098   -1.737697
     82          1           0       -1.113685   -5.080902   -1.986918
     83          1           0       -1.073467    4.878602    2.286590
     84          1           0       -1.999120    5.385789    0.894112
     85          1           0       -2.801349    4.622083    2.245500
     86          1           0        0.810049    4.100578    1.652708
     87          1           0        5.228875   -0.086174   -0.287660
     88          1           0        3.546776   -5.472592   -0.240591
     89          1           0        2.600277   -5.360727   -1.705068
     90          1           0        4.323224   -5.074211   -1.754357
     91          1           0        6.173205    1.361528    1.222172
     92          1           0        6.190772    2.586260   -0.023938
     93          1           0        5.995433    3.046192    1.650390
     94          1           0        6.102901   -2.194364   -3.115382
     95          1           0        6.699486   -3.718773   -2.504375
     96          1           0        5.037576   -3.576371   -3.024803
     97          1           0        6.235197   -2.540144   -0.509827
     98          1           0        5.253860    4.850600    0.452498
     99          1           0        3.828977    5.813080    0.141999
    100          1           0        4.786287    6.106240    1.574020
    101          1           0        3.255811    4.680426    2.592319
 ---------------------------------------------------------------------

 SCF Done:  E(RPBE1PBE) =  -3628.77095652     A.U. after   29 cycles

 The electronic state is 1-A.
 Alpha  occ. eigenvalues -- -256.30851 -30.07790 -25.90661 -25.90314 -25.90067
 Alpha  occ. eigenvalues --  -19.26438 -19.25741 -19.18164 -19.16868 -14.44609
 Alpha  occ. eigenvalues --  -14.44530 -14.38472 -14.38359 -14.37158 -14.36416
 Alpha  occ. eigenvalues --  -14.36272 -14.35742 -10.35067 -10.34444 -10.27916
 Alpha  occ. eigenvalues --  -10.27738 -10.25974 -10.25514 -10.24054 -10.24031
 Alpha  occ. eigenvalues --  -10.23833 -10.23544 -10.23485 -10.23479 -10.23463
 Alpha  occ. eigenvalues --  -10.23379 -10.23359 -10.23173 -10.23011 -10.22704
 Alpha  occ. eigenvalues --  -10.22564 -10.22551 -10.22512 -10.22155 -10.21714
 Alpha  occ. eigenvalues --  -10.21606 -10.21557 -10.21499 -10.21382 -10.21275
 Alpha  occ. eigenvalues --  -10.21096 -10.21041 -10.20903 -10.20868 -10.20799
 Alpha  occ. eigenvalues --  -10.20783 -10.20709 -10.20684 -10.20438 -10.20223
 Alpha  occ. eigenvalues --  -10.20100 -10.20068 -10.19941 -10.19820  -3.42261
 Alpha  occ. eigenvalues --   -2.18221  -2.17694  -2.17314  -1.17229  -1.17035
 Alpha  occ. eigenvalues --   -1.06145  -1.06111  -1.03111  -1.02041  -0.97222
 Alpha  occ. eigenvalues --   -0.96184  -0.96014  -0.94904  -0.90361  -0.90314
 Alpha  occ. eigenvalues --   -0.84664  -0.83620  -0.83413  -0.82691  -0.82356
 Alpha  occ. eigenvalues --   -0.81206  -0.81148  -0.80447  -0.80171  -0.78903
 Alpha  occ. eigenvalues --   -0.78253  -0.77312  -0.76478  -0.74399  -0.73662
 Alpha  occ. eigenvalues --   -0.72543  -0.72486  -0.72301  -0.71788  -0.71117
 Alpha  occ. eigenvalues --   -0.69804  -0.69439  -0.68882  -0.66832  -0.66316
 Alpha  occ. eigenvalues --   -0.64881  -0.64792  -0.64436  -0.64330  -0.62305
 Alpha  occ. eigenvalues --   -0.62034  -0.61893  -0.61649  -0.58407  -0.56823
 Alpha  occ. eigenvalues --   -0.56368  -0.56218  -0.55775  -0.54901  -0.54152
 Alpha  occ. eigenvalues --   -0.53794  -0.53366  -0.53046  -0.52038  -0.51761
 Alpha  occ. eigenvalues --   -0.51132  -0.50479  -0.49329  -0.49004  -0.48424
 Alpha  occ. eigenvalues --   -0.48331  -0.48220  -0.47883  -0.47769  -0.47689
 Alpha  occ. eigenvalues --   -0.47557  -0.47386  -0.46238  -0.45743  -0.45461
 Alpha  occ. eigenvalues --   -0.44949  -0.44833  -0.44741  -0.44701  -0.44382
 Alpha  occ. eigenvalues --   -0.43863  -0.43601  -0.43477  -0.43432  -0.43286
 Alpha  occ. eigenvalues --   -0.43165  -0.43048  -0.42916  -0.42762  -0.42655
 Alpha  occ. eigenvalues --   -0.42554  -0.42241  -0.42142  -0.42006  -0.41489
 Alpha  occ. eigenvalues --   -0.41277  -0.41099  -0.40712  -0.40351  -0.40082
 Alpha  occ. eigenvalues --   -0.39831  -0.39624  -0.39389  -0.39148  -0.39013
 Alpha  occ. eigenvalues --   -0.38829  -0.38272  -0.38048  -0.37767  -0.37673
 Alpha  occ. eigenvalues --   -0.37154  -0.36797  -0.36612  -0.36259  -0.36031
 Alpha  occ. eigenvalues --   -0.35776  -0.34871  -0.34738  -0.34368  -0.34056
 Alpha  occ. eigenvalues --   -0.33678  -0.32492  -0.32087  -0.32004  -0.31772
 Alpha  occ. eigenvalues --   -0.31546  -0.31435  -0.30982  -0.30035  -0.29239
 Alpha  occ. eigenvalues --   -0.28075  -0.27452  -0.27105  -0.26682  -0.25240
 Alpha  occ. eigenvalues --   -0.24980  -0.24255  -0.24152  -0.23945  -0.23048
 Alpha  occ. eigenvalues --   -0.19806  -0.18692  -0.18492  -0.18352  -0.17781
 Alpha  occ. eigenvalues --   -0.12650
 Alpha virt. eigenvalues --   -0.10105  -0.05929  -0.05508  -0.01848  -0.00352
 Alpha virt. eigenvalues --    0.00024   0.01226   0.01673   0.02156   0.02303
 Alpha virt. eigenvalues --    0.02683   0.02923   0.03562   0.04215   0.04776

 Mulliken charges:
               1
     1  C   -0.354274
     2  C    0.102364
     3  N   -0.213633
     4  C   -0.122245
     5  C    0.016298
     6  N   -0.052972
     7  C   -0.384012
     8  C    0.140530
     9  N   -0.213571
    10  C   -0.152804
    11  C    0.025633
    12  N   -0.083400
    13  Fe  -0.288710
    14  C   -0.487110
    15  C   -0.499782
    16  C   -0.533927
    17  C   -0.492431
    18  N    0.049312
    19  C    0.131130
    20  C    0.135943
    21  C   -0.153234
    22  C    0.302641
    23  C   -0.408786
    24  C   -0.297179
    25  C   -0.217223
    26  C    0.272817
    27  O   -0.348279
    28  O   -0.334138
    29  N   -0.096610
    30  C    0.254069
    31  C   -0.089982
    32  C    0.098448
    33  C    0.119366
    34  C   -0.368586
    35  C   -0.315761
    36  C   -0.308448
    37  N    0.076117
    38  C    0.294075
    39  C   -0.073667
    40  C    0.064793
    41  C    0.167607
    42  C   -0.439993
    43  C   -0.320621
    44  C   -0.284759
    45  N    0.017315
    46  C    0.250309
    47  C   -0.087876
    48  C    0.097017
    49  C    0.173841
    50  C   -0.396257
    51  C   -0.372011
    52  C   -0.214413
    53  C    0.298713
    54  O   -0.292772
    55  O   -0.361322
    56  H    0.133894
    57  H    0.138622
    58  H    0.146098
    59  H    0.144572
    60  H    0.228142
    61  H    0.168342
    62  H    0.156373
    63  H    0.154579
    64  H    0.227944
    65  H    0.145860
    66  H    0.148954
    67  H    0.113179
    68  H    0.143972
    69  H    0.129946
    70  H    0.071171
    71  H    0.118908
    72  H    0.356022
    73  H    0.341529
    74  H    0.138074
    75  H    0.122768
    76  H    0.098545
    77  H    0.124470
    78  H    0.074926
    79  H    0.131529
    80  H    0.143720
    81  H    0.116196
    82  H    0.136572
    83  H    0.130616
    84  H    0.144171
    85  H    0.128873
    86  H    0.095866
    87  H    0.112709
    88  H    0.136573
    89  H    0.122174
    90  H    0.133353
    91  H    0.130214
    92  H    0.139394
    93  H    0.145313
    94  H    0.133855
    95  H    0.116654
    96  H    0.123935
    97  H    0.122423
    98  H    0.127772
    99  H    0.134511
   100  H    0.113901
   101  H    0.125238
 Sum of Mulliken charges =  -0.00000

 Dipole moment (field-independent basis, Debye):
    X=              5.8884    Y=             -4.1807    Z=             -1.6522  Tot=              7.4081
 Quadrupole moment (field-independent basis, Debye-Ang):
   XX=           -372.5805   YY=           -329.0463   ZZ=           -279.1970
   XY=             28.4607   XZ=              0.5864   YZ=              9.9783

  Exact polarizability: 899.851 -29.964 987.320 -35.022 157.508 495.233
 Approx polarizability:1828.738-877.7885576.396-396.7321856.5031385.227

 Normal termination of Gaussian 16 at Mon Apr  3 02:05:29 2023.
