 Gaussian 16, Revision A.03,
 Gaussian 16:  ES64L-G16RevA.03 25-Dec-2016

 ----------------------------------------------------------------------
 # PBE1PBE/def2TZVP empiricaldispersion=GD3BJ int=(grid=ultrafine) geom
 =check pop=nbo
 ----------------------------------------------------------------------

 ----------
 1f1f_III_D
 ----------
 Structure from the checkpoint file:  "1f1f_III_D.chk"
 Charge =  1 Multiplicity = 2

                         Standard orientation:
 ---------------------------------------------------------------------
 Center     Atomic      Atomic             Coordinates (Angstroms)
 Number     Number       Type             X           Y           Z
 ---------------------------------------------------------------------
      1          6           0        2.701855   -1.695484    4.863536
      2          6           0        1.841605   -1.105113    3.786270
      3          7           0        0.532127   -0.721753    3.992615
      4          6           0        2.098814   -0.862301    2.479286
      5          6           0        0.020964   -0.272272    2.862315
      6          7           0        0.950442   -0.346928    1.927392
      7          6           0       -1.218963    2.618193   -2.791159
      8          6           0       -0.521306    1.394438   -3.357544
      9         16           0        0.691682    0.589624   -2.294062
     10          6           0        1.380636   -0.622806   -3.449338
     11         26           0        0.813578   -0.087145   -0.068126
     12          6           0       -2.584210   -0.337665   -0.082105
     13          6           0        1.136760   -3.430197   -0.631943
     14          6           0        4.250752    0.340541   -0.452109
     15          6           0        0.551758    3.183354    0.961997
     16          7           0       -0.458964   -1.582635   -0.260392
     17          6           0       -1.852135   -1.523186   -0.235405
     18          6           0       -2.472282   -2.848731   -0.530313
     19          6           0       -1.400338   -3.687912   -0.832274
     20          6           0       -0.162566   -2.906124   -0.573445
     21          6           0       -1.472236   -5.151343   -1.338077
     22          6           0       -3.975651   -3.214350   -0.344269
     23          6           0       -4.387828   -2.902604    1.092872
     24          6           0       -5.849598   -3.198924    1.400721
     25          8           0       -6.739810   -2.601525    0.763286
     26          8           0       -6.113064   -4.023929    2.300219
     27          7           0        2.373185   -1.295387   -0.370248
     28          6           0        2.323377   -2.688321   -0.530376
     29          6           0        3.661276   -3.227764   -0.776210
     30          6           0        4.523482   -2.156172   -0.814045
     31          6           0        3.727448   -0.955904   -0.542272
     32          6           0        4.061290   -4.702738   -0.884498
     33          6           0        5.897786   -2.224098   -1.081887
     34          6           0        6.341315   -2.343687   -2.398855
     35          7           0        2.109330    1.446176    0.153637
     36          6           0        3.489903    1.473508   -0.128891
     37          6           0        4.079909    2.769200    0.265993
     38          6           0        3.071063    3.478317    0.909414
     39          6           0        1.842803    2.691446    0.735866
     40          6           0        5.466110    3.326042   -0.074466
     41          6           0        3.201769    4.724640    1.573897
     42          6           0        3.396796    5.877769    0.857779
     43          7           0       -0.685273    1.146923    0.340273
     44          6           0       -0.621009    2.489242    0.734844
     45          6           0       -1.940199    3.075384    0.765978
     46          6           0       -2.811471    2.078727    0.439215
     47          6           0       -2.039134    0.898400    0.196110
     48          6           0       -2.308575    4.539859    1.007868
     49          6           0       -4.322616    2.151177    0.257007
     50          6           0       -4.665191    2.926687   -1.003109
     51          6           0       -6.124000    2.792947   -1.396537
     52          8           0       -6.524433    1.703436   -1.880522
     53          8           0       -6.872871    3.778529   -1.212121
     54          1           0        3.130949   -2.611725    4.515282
     55          1           0        3.482903   -1.008037    5.113095
     56          1           0        2.105483   -1.887909    5.730838
     57          1           0        3.023648   -1.038747    1.970907
     58          1           0       -0.976376    0.090723    2.726492
     59          1           0       -2.030592    2.894310   -3.431407
     60          1           0       -1.595113    2.394359   -1.814783
     61          1           0       -0.522863    3.428361   -2.728122
     62          1           0        0.035777    1.752585   -4.197955
     63          1           0       -1.295815    0.669775   -3.498607
     64          1           0        2.282956   -1.197221   -3.421687
     65          1           0        2.097706    0.162985   -3.564411
     66          1           0        1.158803   -1.266623   -2.623995
     67          1           0       -3.647242   -0.396100   -0.189107
     68          1           0        1.231547   -4.487572   -0.765632
     69          1           0        5.295289    0.474591   -0.641515
     70          1           0        0.466164    4.179782    1.342398
     71          1           0       -0.802820   -5.977574   -1.219235
     72          1           0       -0.647107   -4.799696   -1.921521
     73          1           0       -1.578317   -5.319010   -0.286633
     74          1           0       -4.055360   -4.274230   -0.467556
     75          1           0       -4.535743   -2.558459   -0.977518
     76          1           0       -4.276039   -1.844307    1.204282
     77          1           0       -3.820268   -3.568331    1.708975
     78          1           0        4.744334   -4.828211   -1.698504
     79          1           0        4.530444   -5.012811    0.025804
     80          1           0        3.188460   -5.297305   -1.056420
     81          1           0        6.344141   -1.340463   -0.675861
     82          1           0        5.644020   -1.865795   -3.054827
     83          1           0        7.299572   -1.877673   -2.496191
     84          1           0        5.498482    3.593739   -1.109932
     85          1           0        5.659564    4.191711    0.523943
     86          1           0        6.208346    2.581552    0.124830
     87          1           0        2.316148    4.863603    2.158075
     88          1           0        2.928107    5.786536   -0.099773
     89          1           0        2.968656    6.703151    1.387250
     90          1           0       -3.242245    4.756062    0.532037
     91          1           0       -2.394823    4.716915    2.059587
     92          1           0       -1.546389    5.171213    0.601218
     93          1           0       -4.702674    2.720722    1.079244
     94          1           0       -4.659971    1.148003    0.099739
     95          1           0       -4.102826    2.472886   -1.792229
     96          1           0       -4.516074    3.959185   -0.765174
     97          1           0        0.045535   -0.776223    4.864545
     98          1           0       -6.883497   -4.591118    2.220662
     99          1           0       -7.023992    1.697129   -2.700279
    100          1           0        4.445797    6.043359    0.727103
    101          1           0        4.023537    4.633865    2.253130
    102          1           0        6.285724   -3.060772   -0.539319
    103          1           0        6.420603   -3.379335   -2.655850
 ---------------------------------------------------------------------

 SCF Done:  E(UPBE1PBE) =  -3881.24999101     A.U. after   76 cycles

 Alpha virt. eigenvalues --    0.97089   0.97236   0.97618   0.98103   0.98220
 Alpha virt. eigenvalues --    0.98279   0.98373   0.98943   0.99198   0.99437
 Alpha virt. eigenvalues --    0.99830   1.00411   1.00466   1.00902   1.01036

  Beta  occ. eigenvalues -- -256.51318 -89.16260 -30.27799 -26.10797 -26.10689
  Beta  occ. eigenvalues --  -26.09916 -19.33341 -19.32603 -19.24420 -19.24395
  Beta  occ. eigenvalues --  -14.55849 -14.51836 -14.50121 -14.49567 -14.49319
  Beta  occ. eigenvalues --  -14.49186 -10.42134 -10.41854 -10.39700 -10.37912
  Beta  occ. eigenvalues --  -10.36973 -10.36873 -10.36833 -10.36469 -10.36318
  Beta  occ. eigenvalues --  -10.36281 -10.36023 -10.35819 -10.35670 -10.34718
  Beta  occ. eigenvalues --  -10.34374 -10.34034 -10.33274 -10.33135 -10.33006
  Beta  occ. eigenvalues --  -10.32990 -10.32887 -10.32825 -10.32612 -10.32267
  Beta  occ. eigenvalues --  -10.32225 -10.31901 -10.31884 -10.31808 -10.31548
  Beta  occ. eigenvalues --  -10.31063 -10.30838 -10.30681 -10.30502 -10.30481
  Beta  occ. eigenvalues --  -10.30265 -10.30158 -10.28860 -10.28624 -10.28543
  Beta  occ. eigenvalues --  -10.27733 -10.27057  -8.13858  -6.07663  -6.07208
  Beta  occ. eigenvalues --   -6.06600  -3.60208  -2.35603  -2.35549  -2.34794
  Beta  occ. eigenvalues --   -1.24089  -1.23083  -1.18070  -1.09289  -1.08937
  Beta  occ. eigenvalues --   -1.08492  -1.07418  -1.06887  -1.05733  -1.02644
  Beta  occ. eigenvalues --   -0.96969  -0.95177  -0.94820  -0.94522  -0.93922
  Beta  occ. eigenvalues --   -0.93305  -0.91952  -0.91695  -0.91316  -0.89696
  Beta  occ. eigenvalues --   -0.89574  -0.88556  -0.87942  -0.87614  -0.85970
  Beta  occ. eigenvalues --   -0.84606  -0.83459  -0.83083  -0.81906  -0.81376
  Beta  occ. eigenvalues --   -0.79792  -0.79469  -0.78850  -0.77887  -0.76271
  Beta  occ. eigenvalues --   -0.76111  -0.75982  -0.73874  -0.73372  -0.73068
  Beta  occ. eigenvalues --   -0.72968  -0.72356  -0.70764  -0.69603  -0.68554
  Beta  occ. eigenvalues --   -0.67790  -0.66327  -0.65153  -0.65105  -0.64151
  Beta  occ. eigenvalues --   -0.62968  -0.62790  -0.62165  -0.61848  -0.60232
  Beta  occ. eigenvalues --   -0.59982  -0.59585  -0.59435  -0.59184  -0.59100
  Beta  occ. eigenvalues --   -0.58899  -0.58652  -0.58473  -0.58382  -0.57983
  Beta  occ. eigenvalues --   -0.57758  -0.57408  -0.57316  -0.57013  -0.56917
  Beta  occ. eigenvalues --   -0.56287  -0.56031  -0.55005  -0.54588  -0.54351
  Beta  occ. eigenvalues --   -0.54331  -0.54036  -0.53990  -0.53622  -0.53492
  Beta  occ. eigenvalues --   -0.53104  -0.53022  -0.52520  -0.52453  -0.52112
  Beta  occ. eigenvalues --   -0.51933  -0.51797  -0.51531  -0.51164  -0.51149
  Beta  occ. eigenvalues --   -0.50748  -0.50487  -0.50114  -0.49696  -0.49580
  Beta  occ. eigenvalues --   -0.49422  -0.49218  -0.49136  -0.48825  -0.48188
  Beta  occ. eigenvalues --   -0.47887  -0.47751  -0.47619  -0.47352  -0.47194
  Beta  occ. eigenvalues --   -0.47098  -0.46851  -0.46566  -0.46338  -0.45478
  Beta  occ. eigenvalues --   -0.45039  -0.44778  -0.44209  -0.44082  -0.43447
  Beta  occ. eigenvalues --   -0.43313  -0.43147  -0.42864  -0.42712  -0.42172
  Beta  occ. eigenvalues --   -0.41543  -0.40943  -0.40472  -0.39402  -0.39259
  Beta  occ. eigenvalues --   -0.38665  -0.38214  -0.37583  -0.36280  -0.35653
  Beta  occ. eigenvalues --   -0.35097  -0.34752  -0.34591  -0.33959  -0.33799
  Beta  occ. eigenvalues --   -0.32770  -0.30656  -0.30379  -0.29897  -0.28946
  Beta virt. eigenvalues --   -0.20238  -0.18033  -0.16603  -0.15845  -0.13809
  Beta virt. eigenvalues --   -0.11699  -0.11211  -0.10145  -0.08536  -0.07721
  Beta virt. eigenvalues --   -0.07186  -0.07084  -0.06580  -0.06143  -0.06048

 Mulliken charges and spin densities:
               1          2
     1  C   -0.348889  -0.000297
     2  C    0.112595  -0.001273
     3  N   -0.196337   0.003144
     4  C   -0.170837   0.002494
     5  C    0.030826   0.010952
     6  N    0.049390  -0.040068
     7  C   -0.324894   0.000531
     8  C   -0.125788  -0.005065
     9  S   -0.005502  -0.022919
    10  C   -0.586648   0.027046
    11  Fe  -0.419537   1.098033
    12  C   -0.545184  -0.007700
    13  C   -0.473195  -0.009802
    14  C   -0.464899   0.000786
    15  C   -0.488656  -0.004609
    16  N    0.078219  -0.038066
    17  C    0.274598   0.011035
    18  C   -0.002021   0.001716
    19  C   -0.248059   0.017120
    20  C    0.289310   0.004364
    21  C   -0.558321   0.006824
    22  C   -0.313004  -0.000892
    23  C   -0.133600   0.000071
    24  C    0.258301  -0.000013
    25  O   -0.369375   0.000042
    26  O   -0.327807  -0.000003
    27  N    0.000940  -0.025604
    28  C    0.156426   0.003381
    29  C   -0.041172   0.006806
    30  C    0.098522  -0.003310
    31  C    0.137279  -0.000048
    32  C   -0.393044  -0.000337
    33  C   -0.260373  -0.000223
    34  C   -0.330629  -0.000067
    35  N    0.031433  -0.032836
    36  C    0.208749   0.001194
    37  C   -0.073780   0.002631
    38  C   -0.008392   0.011122
    39  C    0.271525   0.002838
    40  C   -0.361000  -0.000963
    41  C   -0.247431  -0.000661
    42  C   -0.332027   0.000484
    43  N    0.013080  -0.034719
    44  C    0.228654   0.000644
    45  C   -0.044489   0.012880
    46  C    0.060227  -0.006595
    47  C    0.229934   0.011345
    48  C   -0.380466  -0.000744
    49  C   -0.373562  -0.000195
    50  C   -0.059461  -0.000213
    51  C    0.260848  -0.000038
    52  O   -0.348226  -0.000005
    53  O   -0.345917  -0.000054
    54  H    0.156698   0.000048
    55  H    0.160670   0.000040
    56  H    0.131436  -0.000062
    57  H    0.162068  -0.000203
    58  H    0.185214  -0.000612
    59  H    0.153674  -0.000140
    60  H    0.087542  -0.000071
    61  H    0.127382   0.000039
    62  H    0.149124  -0.001560
    63  H    0.133404   0.001061
    64  H    0.259009  -0.001541
    65  H    0.255627   0.001759
    66  H    0.211714  -0.001337
    67  H    0.151990   0.000193
    68  H    0.111307   0.000246
    69  H    0.129737  -0.000090
    70  H    0.137235   0.000114
    71  H    0.268393   0.000443
    72  H    0.230174   0.000196
    73  H    0.252522  -0.000238
    74  H    0.155782  -0.000136
    75  H    0.130618   0.000216
    76  H    0.108357   0.000015
    77  H    0.111981   0.000003
    78  H    0.148203   0.000164
    79  H    0.157185   0.000332
    80  H    0.129649   0.000003
    81  H    0.105139  -0.000071
    82  H    0.109077  -0.000052
    83  H    0.131751  -0.000012
    84  H    0.154693   0.000223
    85  H    0.139580  -0.000094
    86  H    0.135791   0.000183
    87  H    0.106476   0.000020
    88  H    0.118359  -0.000028
    89  H    0.129860   0.000132
    90  H    0.140125   0.000063
    91  H    0.157700   0.000689
    92  H    0.142563   0.000257
    93  H    0.150721  -0.000143
    94  H    0.123896  -0.000064
    95  H    0.090747  -0.000001
    96  H    0.109220   0.000017
    97  H    0.249558  -0.000431
    98  H    0.360741   0.000005
    99  H    0.362692   0.000001
   100  H    0.115441  -0.000027
   101  H    0.133717   0.000438
   102  H    0.125234  -0.000139
   103  H    0.121890  -0.000010
 Sum of Mulliken charges =   1.00000   1.00000

 Dipole moment (field-independent basis, Debye):
    X=              8.9786    Y=             -3.3128    Z=              5.4382  Tot=             11.0074
 Quadrupole moment (field-independent basis, Debye-Ang):
   XX=           -281.8791   YY=           -261.6619   ZZ=           -272.8623
   XY=             15.8901   XZ=             -2.1012   YZ=            -15.9454

 Summary of Natural Population Analysis:

                                       Natural Population
                Natural  -----------------------------------------------
    Atom  No    Charge         Core      Valence    Rydberg      Total
 -----------------------------------------------------------------------
      C    1   -0.32102      0.99969     2.31817    0.00316     3.32102
      C    2    0.06038      0.99954     1.93112    0.00895     2.93962
      N    3   -0.23065      0.99968     2.72101    0.00996     3.73065
      C    4   -0.03115      0.99942     2.02261    0.00911     3.03115
      C    5    0.10860      0.99965     1.88061    0.01114     2.89140
      N    6   -0.17268      0.99967     2.64879    0.02423     3.67268
      C    7   -0.30775      0.99971     2.30205    0.00599     3.30775
      C    8   -0.25784      0.99966     2.24703    0.01114     3.25784
      S    9    0.32363      4.99910     2.65101    0.02626     7.67637
      C   10   -0.65796      0.99953     2.62203    0.03639     3.65796
     Fe   11    0.57898      8.99457     3.39887    0.02758    12.42102
      C   12   -0.12875      0.99947     2.12081    0.00847     3.12875
      C   13   -0.13369      0.99949     2.12551    0.00868     3.13369
      C   14   -0.12025      0.99949     2.11258    0.00818     3.12025
      C   15   -0.11621      0.99948     2.10822    0.00850     3.11621
      N   16   -0.20137      0.99967     2.67909    0.02261     3.70137
      C   17    0.09495      0.99953     1.89517    0.01034     2.90505
      C   18   -0.00786      0.99943     1.99860    0.00983     3.00786
      C   19    0.02940      0.99931     1.96053    0.01075     2.97060
      C   20    0.06443      0.99950     1.92536    0.01071     2.93557
      C   21   -0.60139      0.99954     2.57102    0.03083     3.60139
      C   22   -0.20709      0.99966     2.20067    0.00675     3.20709
      C   23   -0.24799      0.99964     2.24013    0.00822     3.24799
      C   24    0.38142      0.99977     1.60025    0.01856     2.61858
      O   25   -0.30189      0.99989     3.28977    0.01223     4.30189
      O   26   -0.32713      0.99981     3.31365    0.01367     4.32713
      N   27   -0.22410      0.99969     2.69855    0.02585     3.72410
      C   28    0.07609      0.99952     1.91409    0.01030     2.92391
      C   29   -0.00130      0.99946     1.99388    0.00796     3.00130
      C   30   -0.00845      0.99947     1.99932    0.00965     3.00845
      C   31    0.07853      0.99953     1.91123    0.01071     2.92147
      C   32   -0.32005      0.99969     2.31654    0.00382     3.32005
      C   33   -0.22809      0.99961     2.21983    0.00865     3.22809
      C   34   -0.29316      0.99966     2.28653    0.00697     3.29316
      N   35   -0.19898      0.99969     2.67631    0.02298     3.69898
      C   36    0.08552      0.99953     1.90493    0.01002     2.91448
      C   37    0.00277      0.99949     1.99005    0.00770     2.99723
      C   38    0.00477      0.99950     1.98624    0.00950     2.99523
      C   39    0.08976      0.99953     1.90063    0.01008     2.91024
      C   40   -0.31986      0.99969     2.31649    0.00369     3.31986
      C   41   -0.22960      0.99960     2.22098    0.00902     3.22960
      C   42   -0.29453      0.99963     2.28741    0.00749     3.29453
      N   43   -0.21662      0.99968     2.69220    0.02474     3.71662
      C   44    0.07330      0.99949     1.91697    0.01024     2.92670
      C   45    0.00163      0.99941     1.99070    0.00826     2.99837
      C   46   -0.01364      0.99942     2.00496    0.00926     3.01364
      C   47    0.07709      0.99948     1.91263    0.01080     2.92291
      C   48   -0.31981      0.99969     2.31641    0.00371     3.31981
      C   49   -0.21079      0.99966     2.20461    0.00652     3.21079
      C   50   -0.24525      0.99963     2.23712    0.00849     3.24525
      C   51    0.37979      0.99976     1.60208    0.01837     2.62021
      O   52   -0.33721      0.99980     3.32340    0.01401     4.33721
      O   53   -0.28766      0.99989     3.27578    0.01199     4.28766
      H   54    0.11997      0.00000     0.37950    0.00054     0.38003
      H   55    0.11961      0.00000     0.37980    0.00059     0.38039
      H   56    0.11205      0.00000     0.38739    0.00056     0.38795
      H   57    0.12191      0.00000     0.37720    0.00089     0.37809
      H   58    0.11746      0.00000     0.38174    0.00080     0.38254
      H   59    0.11644      0.00000     0.38303    0.00053     0.38356
      H   60    0.11030      0.00000     0.38862    0.00108     0.38970
      H   61    0.10843      0.00000     0.39097    0.00060     0.39157
      H   62    0.12143      0.00000     0.37766    0.00091     0.37857
      H   63    0.11453      0.00000     0.38430    0.00117     0.38547
      H   64    0.20780      0.00000     0.29137    0.00082     0.29220
      H   65    0.20314      0.00000     0.29561    0.00126     0.29686
      H   66    0.20244      0.00000     0.29535    0.00221     0.29756
      H   67    0.11394      0.00000     0.38462    0.00144     0.38606
      H   68    0.11122      0.00000     0.38680    0.00198     0.38878
      H   69    0.11471      0.00000     0.38405    0.00124     0.38529
      H   70    0.11383      0.00000     0.38504    0.00113     0.38617
      H   71    0.19717      0.00000     0.30209    0.00073     0.30283
      H   72    0.20849      0.00000     0.28979    0.00172     0.29151
      H   73    0.21211      0.00000     0.28675    0.00114     0.28789
      H   74    0.12104      0.00000     0.37793    0.00103     0.37896
      H   75    0.12025      0.00000     0.37870    0.00105     0.37975
      H   76    0.11760      0.00000     0.38164    0.00076     0.38240
      H   77    0.10934      0.00000     0.38977    0.00089     0.39066
      H   78    0.11492      0.00000     0.38431    0.00077     0.38508
      H   79    0.11615      0.00000     0.38309    0.00076     0.38385
      H   80    0.11018      0.00000     0.38925    0.00058     0.38982
      H   81    0.10594      0.00000     0.39309    0.00097     0.39406
      H   82    0.10235      0.00000     0.39690    0.00076     0.39765
      H   83    0.11128      0.00000     0.38819    0.00053     0.38872
      H   84    0.11722      0.00000     0.38209    0.00069     0.38278
      H   85    0.11284      0.00000     0.38645    0.00071     0.38716
      H   86    0.11127      0.00000     0.38804    0.00069     0.38873
      H   87    0.10646      0.00000     0.39259    0.00096     0.39354
      H   88    0.10468      0.00000     0.39460    0.00072     0.39532
      H   89    0.11065      0.00000     0.38880    0.00055     0.38935
      H   90    0.11377      0.00000     0.38543    0.00080     0.38623
      H   91    0.11670      0.00000     0.38258    0.00072     0.38330
      H   92    0.11390      0.00000     0.38546    0.00064     0.38610
      H   93    0.11732      0.00000     0.38162    0.00106     0.38268
      H   94    0.11163      0.00000     0.38744    0.00093     0.38837
      H   95    0.11033      0.00000     0.38876    0.00091     0.38967
      H   96    0.11874      0.00000     0.38035    0.00091     0.38126
      H   97    0.21365      0.00000     0.28560    0.00075     0.28635
      H   98    0.26016      0.00000     0.23851    0.00132     0.23984
      H   99    0.26159      0.00000     0.23722    0.00119     0.23841
      H  100    0.10405      0.00000     0.39528    0.00068     0.39595
      H  101    0.11329      0.00000     0.38555    0.00116     0.38671
      H  102    0.11155      0.00000     0.38719    0.00126     0.38845
      H  103    0.10487      0.00000     0.39448    0.00065     0.39513
 =======================================================================
   * Total *    1.00000     64.97311   139.32713    0.69976   205.00000

 Normal termination of Gaussian 16 at Wed Sep 14 10:26:33 2022.
