 Gaussian 16, Revision A.03,
 Gaussian 16:  ES64L-G16RevA.03 25-Dec-2016

 ----------------------------------------------------------------------
 # PBE1PBE/def2TZVP empiricaldispersion=GD3BJ int=(grid=ultrafine) geom
 =check pop=nbo
 ----------------------------------------------------------------------

 ----------
 1fhf_III_H
 ----------
 Structure from the checkpoint file:  "1fhf_III_H.chk"
 Charge =  1 Multiplicity = 6

                         Standard orientation:
 ---------------------------------------------------------------------
 Center     Atomic      Atomic             Coordinates (Angstroms)
 Number     Number       Type             X           Y           Z
 ---------------------------------------------------------------------
      1          6           0        1.574455    1.471442    5.288724
      2          6           0        1.478990    0.546920    4.091458
      3          7           0        1.923798   -0.780184    4.063819
      4          6           0        0.987139    0.908072    2.818344
      5          6           0        1.735495   -1.143950    2.750388
      6          7           0        1.208323   -0.206906    1.964709
      7          6           0       -2.526192    0.021684    0.217951
      8          6           0        0.745288   -3.574735   -0.267713
      9          6           0        4.285837   -0.286277   -0.862747
     10          6           0        1.060043    3.309501   -0.327218
     11          6           0       -1.962654   -1.248221    0.007234
     12          6           0       -2.747564   -2.536535    0.095671
     13          6           0       -1.799014   -3.529013   -0.044134
     14          6           0       -0.460496   -2.868148   -0.149965
     15          6           0       -2.058203   -5.046150   -0.071571
     16          6           0       -4.201906   -2.705018    0.639728
     17          6           0       -5.247258   -3.791751    0.294099
     18          6           0       -6.293227   -3.330954   -0.726464
     19          8           0       -6.867937   -2.237520   -0.545982
     20          8           0       -6.553513   -4.061824   -1.707278
     21          6           0        1.997533   -2.985463   -0.438172
     22          6           0        3.270645   -3.743646   -0.427193
     23          6           0        4.278133   -2.820638   -0.599353
     24          6           0        3.615894   -1.487770   -0.688674
     25          6           0        3.481572   -5.252671   -0.222994
     26          6           0        5.623445   -3.187713   -0.738130
     27          6           0        6.727166   -2.323102   -0.101069
     28          6           0        3.681894    0.956685   -0.861822
     29          6           0        4.384402    2.173846   -1.246275
     30          6           0        3.476134    3.187106   -1.157484
     31          6           0        2.219063    2.588805   -0.660039
     32          6           0        5.830301    2.288894   -1.724444
     33          6           0        3.676373    4.515237   -1.542431
     34          6           0        4.888638    5.298291   -1.004995
     35          6           0       -0.171354    2.710525   -0.008698
     36          6           0       -1.391958    3.433633    0.332542
     37          6           0       -2.389602    2.508832    0.460465
     38          6           0       -1.787427    1.211591    0.257239
     39          6           0       -1.518515    4.936155    0.541177
     40          6           0       -3.894104    2.757666    0.625123
     41          6           0       -4.478596    3.641028   -0.473852
     42          6           0       -5.986715    3.728601   -0.415519
     43          8           0       -6.524449    3.884452    0.699027
     44          8           0       -6.630647    3.652867   -1.482189
     45          7           0       -0.549766   -1.463686   -0.137979
     46          7           0        2.209905   -1.589673   -0.531478
     47          7           0        2.329562    1.186071   -0.573896
     48          7           0       -0.398483    1.313698   -0.003540
     49         26           0        0.910840   -0.139844   -0.257081
     50          1           0        1.995385   -2.115287    2.384519
     51          1           0        2.289178   -1.329601    4.815243
     52          1           0        0.535663    1.839861    2.548459
     53          1           0        0.984291    2.346255    5.111778
     54          1           0        1.211312    0.966297    6.159273
     55          1           0        2.595153    1.754441    5.440331
     56          1           0       -6.710018   -3.670121   -2.569644
     57          1           0       -4.736066   -4.644486   -0.101408
     58          1           0       -5.750617   -4.080290    1.193141
     59          1           0       -4.090160   -2.762809    1.702307
     60          1           0       -4.686743   -1.778671    0.412324
     61          1           0       -1.858315   -5.424455   -1.052301
     62          1           0       -1.416992   -5.530366    0.635030
     63          1           0       -3.079462   -5.238182    0.183486
     64          1           0       -3.585291    0.083825    0.357042
     65          1           0       -4.401266    1.815553    0.614674
     66          1           0       -4.062857    3.228964    1.570798
     67          1           0       -4.193154    3.242157   -1.424812
     68          1           0       -4.072252    4.626089   -0.376702
     69          1           0       -6.555520    4.349246   -2.138703
     70          1           0       -2.152433    5.349162   -0.215442
     71          1           0       -1.941836    5.128009    1.504967
     72          1           0       -0.550235    5.387455    0.480662
     73          1           0        1.117884    4.377872   -0.315437
     74          1           0        5.950575    3.194106   -2.282142
     75          1           0        6.485725    2.301231   -0.878769
     76          1           0        6.067605    1.451949   -2.347429
     77          1           0        5.345246   -0.324217   -1.008051
     78          1           0        3.964896   -5.664974   -1.083984
     79          1           0        4.092659   -5.413770    0.640441
     80          1           0        2.533969   -5.729576   -0.083313
     81          1           0        0.701117   -4.642911   -0.223565
     82          7           0        0.273493    0.160536   -2.097839
     83          6           0        0.456961    0.068650   -3.364113
     84          1           0        0.849630   -0.122781   -4.340876
     85          1           0        5.883763   -4.068724   -1.286725
     86          1           0        7.084780   -1.452134   -0.609427
     87          1           0        7.136425   -2.593334    0.849921
     88          1           0        2.987428    4.988262   -2.210641
     89          1           0        5.282130    6.123181   -1.561431
     90          1           0        5.337435    5.017472   -0.075144
 ---------------------------------------------------------------------

 SCF Done:  E(UPBE1PBE) =  -3455.27539964     A.U. after   52 cycles

 Alpha virt. eigenvalues --    0.66827   0.67048   0.67798   0.67929   0.68317
 Alpha virt. eigenvalues --    0.68485   0.68711   0.68932   0.69216   0.69361
 Alpha virt. eigenvalues --    0.69544   0.70264   0.70498   0.70867   0.71016

  Beta  occ. eigenvalues -- -256.52616 -30.27257 -26.10573 -26.10475 -26.09602
  Beta  occ. eigenvalues --  -19.33078 -19.32000 -19.24549 -19.24523 -14.55811
  Beta  occ. eigenvalues --  -14.54698 -14.50121 -14.49856 -14.49698 -14.49284
  Beta  occ. eigenvalues --  -14.48990 -10.43444 -10.42332 -10.41737 -10.38512
  Beta  occ. eigenvalues --  -10.36908 -10.36819 -10.36625 -10.36478 -10.36426
  Beta  occ. eigenvalues --  -10.36370 -10.36080 -10.35885 -10.35720 -10.33958
  Beta  occ. eigenvalues --  -10.33781 -10.33513 -10.33423 -10.33249 -10.33130
  Beta  occ. eigenvalues --  -10.33075 -10.32849 -10.32725 -10.32690 -10.32633
  Beta  occ. eigenvalues --  -10.32405 -10.32356 -10.32273 -10.32271 -10.31872
  Beta  occ. eigenvalues --  -10.31707 -10.31409 -10.31116 -10.30821 -10.30799
  Beta  occ. eigenvalues --  -10.30728 -10.30395 -10.30320 -10.30168 -10.29823
  Beta  occ. eigenvalues --   -3.57688  -2.33692  -2.33494  -2.30014  -1.23821
  Beta  occ. eigenvalues --   -1.23113  -1.13419  -1.09320  -1.09298  -1.07537
  Beta  occ. eigenvalues --   -1.06214  -1.06100  -1.04789  -1.02763  -1.00139
  Beta  occ. eigenvalues --   -0.93320  -0.92864  -0.92321  -0.92175  -0.91785
  Beta  occ. eigenvalues --   -0.90566  -0.90192  -0.88871  -0.87832  -0.87455
  Beta  occ. eigenvalues --   -0.85433  -0.85173  -0.83923  -0.82551  -0.81775
  Beta  occ. eigenvalues --   -0.80405  -0.80331  -0.79573  -0.78789  -0.78405
  Beta  occ. eigenvalues --   -0.77175  -0.75438  -0.75088  -0.74732  -0.74095
  Beta  occ. eigenvalues --   -0.73374  -0.72729  -0.72107  -0.70939  -0.70688
  Beta  occ. eigenvalues --   -0.68664  -0.67612  -0.64845  -0.64737  -0.64479
  Beta  occ. eigenvalues --   -0.64236  -0.63389  -0.62120  -0.61673  -0.60691
  Beta  occ. eigenvalues --   -0.60354  -0.60139  -0.59520  -0.58937  -0.58310
  Beta  occ. eigenvalues --   -0.58056  -0.57492  -0.57311  -0.56937  -0.56471
  Beta  occ. eigenvalues --   -0.56241  -0.55795  -0.55339  -0.54770  -0.54548
  Beta  occ. eigenvalues --   -0.54013  -0.53878  -0.53709  -0.53303  -0.53146
  Beta  occ. eigenvalues --   -0.52771  -0.52705  -0.52392  -0.52335  -0.52031
  Beta  occ. eigenvalues --   -0.51510  -0.51464  -0.51310  -0.51103  -0.50846
  Beta  occ. eigenvalues --   -0.50677  -0.50494  -0.50364  -0.50227  -0.49959
  Beta  occ. eigenvalues --   -0.49780  -0.49558  -0.49452  -0.48979  -0.48816
  Beta  occ. eigenvalues --   -0.48563  -0.48279  -0.48215  -0.47850  -0.47613
  Beta  occ. eigenvalues --   -0.47474  -0.47194  -0.46906  -0.46476  -0.46244
  Beta  occ. eigenvalues --   -0.45532  -0.45231  -0.45009  -0.44299  -0.43746
  Beta  occ. eigenvalues --   -0.43411  -0.43407  -0.42640  -0.42328  -0.41845
  Beta  occ. eigenvalues --   -0.41364  -0.40454  -0.39672  -0.39495  -0.38178
  Beta  occ. eigenvalues --   -0.37887  -0.37359  -0.36501  -0.36029  -0.34798
  Beta  occ. eigenvalues --   -0.34579  -0.34173  -0.33578  -0.32877  -0.31939
  Beta  occ. eigenvalues --   -0.29846  -0.28740
  Beta virt. eigenvalues --   -0.20608  -0.20268  -0.17625  -0.16744  -0.15541
  Beta virt. eigenvalues --   -0.14711  -0.13067  -0.12890  -0.12577  -0.10455
  Beta virt. eigenvalues --   -0.09787  -0.09596  -0.07988  -0.07672  -0.07384

 Mulliken charges and spin densities:
               1          2
     1  C   -0.372695   0.000745
     2  C    0.123786   0.002750
     3  N   -0.214170   0.003029
     4  C   -0.174904   0.001187
     5  C    0.033577   0.004940
     6  N   -0.113371   0.042222
     7  C   -0.410596   0.030562
     8  C   -0.486651   0.074823
     9  C   -0.432883  -0.037903
    10  C   -0.467041  -0.061730
    11  C    0.225870  -0.006326
    12  C   -0.168865  -0.001807
    13  C   -0.044552   0.025239
    14  C    0.238634  -0.041957
    15  C   -0.391178  -0.001960
    16  C   -0.199144   0.000350
    17  C   -0.098666   0.000016
    18  C    0.228287  -0.000005
    19  O   -0.357428   0.000023
    20  O   -0.325712   0.000004
    21  C    0.244372  -0.071228
    22  C   -0.088175   0.273468
    23  C    0.045005  -0.186688
    24  C    0.251729   0.088131
    25  C   -0.380519  -0.017118
    26  C   -0.182898   0.794706
    27  C   -0.294314   1.049306
    28  C    0.257017   0.045427
    29  C   -0.092749   0.016329
    30  C    0.082025   0.018201
    31  C    0.198167   0.060336
    32  C   -0.374254  -0.001545
    33  C   -0.300852  -0.056605
    34  C   -0.279569   0.069125
    35  C    0.242722   0.060603
    36  C   -0.052549  -0.009443
    37  C    0.011170   0.045380
    38  C    0.282853  -0.005961
    39  C   -0.383251   0.000404
    40  C   -0.308410  -0.004520
    41  C   -0.221660   0.002122
    42  C    0.310216   0.000162
    43  O   -0.331523   0.000270
    44  O   -0.332621   0.000115
    45  N    0.030045  -0.012049
    46  N   -0.026278  -0.012199
    47  N    0.043727  -0.085066
    48  N   -0.011912  -0.048974
    49  Fe  -0.124896   2.902699
    50  H    0.163072   0.000148
    51  H    0.259569   0.000948
    52  H    0.160032   0.000273
    53  H    0.148244   0.000032
    54  H    0.141530   0.000128
    55  H    0.150780   0.000094
    56  H    0.358465  -0.000004
    57  H    0.079770  -0.000020
    58  H    0.146112  -0.000011
    59  H    0.143135   0.000006
    60  H    0.150648   0.000052
    61  H    0.157834   0.000989
    62  H    0.137610   0.000968
    63  H    0.138978  -0.000016
    64  H    0.138182  -0.001869
    65  H    0.118900   0.000049
    66  H    0.147246   0.001381
    67  H    0.118219  -0.000235
    68  H    0.116512  -0.000119
    69  H    0.355584  -0.000012
    70  H    0.144127   0.000084
    71  H    0.157359  -0.000125
    72  H    0.135920  -0.000137
    73  H    0.136475   0.002177
    74  H    0.166196  -0.000298
    75  H    0.150745   0.001453
    76  H    0.137784   0.000602
    77  H    0.098461   0.000111
    78  H    0.151848   0.009355
    79  H    0.153160   0.009638
    80  H    0.132018   0.000765
    81  H    0.128469  -0.003644
    82  N   -0.039156  -0.029647
    83  C    0.015357   0.103568
    84  H    0.252294   0.006768
    85  H    0.160804  -0.015135
    86  H    0.152085  -0.015293
    87  H    0.158008  -0.020476
    88  H    0.152161   0.003753
    89  H    0.163473  -0.002793
    90  H    0.157071  -0.003100
 Sum of Mulliken charges =   1.00000   5.00000

 Dipole moment (field-independent basis, Debye):
    X=              8.8762    Y=             -2.4244    Z=             -2.7193  Tot=              9.5948
 Quadrupole moment (field-independent basis, Debye-Ang):
   XX=           -265.3988   YY=           -216.8876   ZZ=           -229.3388
   XY=              6.5856   XZ=             31.3850   YZ=            -16.2997

 Summary of Natural Population Analysis:

                                       Natural Population
                Natural  -----------------------------------------------
    Atom  No    Charge         Core      Valence    Rydberg      Total
 -----------------------------------------------------------------------
      C    1   -0.32125      0.99969     2.31839    0.00318     3.32125
      C    2    0.06850      0.99963     1.92456    0.00731     2.93150
      N    3   -0.24944      0.99971     2.74052    0.00921     3.74944
      C    4   -0.04582      0.99954     2.03751    0.00877     3.04582
      C    5    0.10627      0.99969     1.88521    0.00883     2.89373
      N    6   -0.16469      0.99974     2.64621    0.01873     3.66469
      C    7   -0.09910      0.99949     2.09175    0.00786     3.09910
      C    8   -0.09496      0.99949     2.08742    0.00806     3.09496
      C    9   -0.14349      0.99947     2.13571    0.00832     3.14349
      C   10   -0.14322      0.99950     2.13587    0.00785     3.14322
      C   11    0.08942      0.99953     1.90143    0.00961     2.91058
      C   12   -0.00351      0.99940     1.99583    0.00827     3.00351
      C   13    0.00924      0.99946     1.98371    0.00759     2.99076
      C   14    0.07080      0.99954     1.91969    0.00997     2.92920
      C   15   -0.32039      0.99968     2.31711    0.00359     3.32039
      C   16   -0.21669      0.99961     2.21039    0.00668     3.21669
      C   17   -0.24810      0.99960     2.24040    0.00810     3.24810
      C   18    0.38308      0.99978     1.59888    0.01826     2.61692
      O   19   -0.29957      0.99989     3.28749    0.01219     4.29957
      O   20   -0.32725      0.99980     3.31364    0.01381     4.32725
      C   21    0.05105      0.99952     1.93941    0.01002     2.94895
      C   22    0.14090      0.99946     1.85194    0.00769     2.85910
      C   23   -0.12807      0.99943     2.11927    0.00938     3.12807
      C   24    0.14839      0.99952     1.84234    0.00976     2.85161
      C   25   -0.32631      0.99969     2.32312    0.00350     3.32631
      C   26    0.29269      0.99960     1.70034    0.00737     2.70731
      C   27    0.34563      0.99977     1.65122    0.00338     2.65437
      C   28    0.10351      0.99950     1.88715    0.00985     2.89649
      C   29    0.02584      0.99944     1.96644    0.00828     2.97416
      C   30   -0.05103      0.99943     2.04076    0.01085     3.05103
      C   31    0.12388      0.99955     1.86665    0.00991     2.87612
      C   32   -0.32375      0.99969     2.32046    0.00360     3.32375
      C   33   -0.12920      0.99960     2.12014    0.00946     3.12920
      C   34   -0.13824      0.99975     2.13365    0.00484     3.13824
      C   35    0.10832      0.99952     1.88222    0.00994     2.89168
      C   36   -0.01151      0.99944     2.00409    0.00799     3.01151
      C   37    0.01696      0.99942     1.97445    0.00918     2.98304
      C   38    0.08173      0.99950     1.90890    0.00988     2.91827
      C   39   -0.31900      0.99969     2.31319    0.00611     3.31900
      C   40   -0.20843      0.99966     2.20153    0.00724     3.20843
      C   41   -0.25605      0.99962     2.24796    0.00847     3.25605
      C   42    0.38392      0.99975     1.59882    0.01751     2.61608
      O   43   -0.27622      0.99989     3.26457    0.01175     4.27622
      O   44   -0.33376      0.99979     3.31880    0.01516     4.33376
      N   45   -0.19572      0.99969     2.67421    0.02182     3.69572
      N   46   -0.20562      0.99969     2.68592    0.02000     3.70562
      N   47   -0.22363      0.99969     2.70342    0.02052     3.72363
      N   48   -0.21276      0.99969     2.69037    0.02270     3.71276
     Fe   49    1.60571      8.99309     2.37467    0.02653    11.39429
      H   50    0.10634      0.00000     0.39274    0.00092     0.39366
      H   51    0.21776      0.00000     0.28136    0.00088     0.28224
      H   52    0.11776      0.00000     0.38144    0.00080     0.38224
      H   53    0.11894      0.00000     0.38059    0.00047     0.38106
      H   54    0.11220      0.00000     0.38711    0.00070     0.38780
      H   55    0.11445      0.00000     0.38485    0.00070     0.38555
      H   56    0.25973      0.00000     0.23896    0.00131     0.24027
      H   57    0.10751      0.00000     0.39171    0.00078     0.39249
      H   58    0.12539      0.00000     0.37411    0.00050     0.37461
      H   59    0.11566      0.00000     0.38337    0.00097     0.38434
      H   60    0.12224      0.00000     0.37690    0.00086     0.37776
      H   61    0.11649      0.00000     0.38284    0.00067     0.38351
      H   62    0.11320      0.00000     0.38611    0.00070     0.38680
      H   63    0.11163      0.00000     0.38753    0.00084     0.38837
      H   64    0.11498      0.00000     0.38350    0.00153     0.38502
      H   65    0.11084      0.00000     0.38848    0.00068     0.38916
      H   66    0.12362      0.00000     0.37556    0.00083     0.37638
      H   67    0.10648      0.00000     0.39272    0.00080     0.39352
      H   68    0.11569      0.00000     0.38358    0.00073     0.38431
      H   69    0.25747      0.00000     0.24142    0.00111     0.24253
      H   70    0.11253      0.00000     0.38672    0.00076     0.38747
      H   71    0.11778      0.00000     0.38159    0.00063     0.38222
      H   72    0.11141      0.00000     0.38817    0.00042     0.38859
      H   73    0.11746      0.00000     0.38130    0.00124     0.38254
      H   74    0.12311      0.00000     0.37615    0.00074     0.37689
      H   75    0.11622      0.00000     0.38309    0.00069     0.38378
      H   76    0.11083      0.00000     0.38844    0.00073     0.38917
      H   77    0.11706      0.00000     0.38164    0.00130     0.38294
      H   78    0.12042      0.00000     0.37885    0.00073     0.37958
      H   79    0.12094      0.00000     0.37846    0.00060     0.37906
      H   80    0.11099      0.00000     0.38846    0.00055     0.38901
      H   81    0.11260      0.00000     0.38602    0.00138     0.38740
      N   82   -0.12790      0.99976     2.60903    0.01911     3.62790
      C   83    0.18011      0.99964     1.81421    0.00604     2.81989
      H   84    0.13147      0.00000     0.36780    0.00073     0.36853
      H   85    0.10668      0.00000     0.39246    0.00086     0.39332
      H   86    0.08597      0.00000     0.41340    0.00063     0.41403
      H   87    0.09265      0.00000     0.40675    0.00060     0.40735
      H   88    0.11284      0.00000     0.38632    0.00084     0.38716
      H   89    0.10080      0.00000     0.39852    0.00068     0.39920
      H   90    0.09862      0.00000     0.40064    0.00074     0.40138
 =======================================================================
   * Total *    3.00000     58.97373   127.46062    0.56565   187.00000

 Normal termination of Gaussian 16 at Thu Sep  1 23:30:12 2022.
