 Gaussian 16, Revision A.03,
 Gaussian 16:  AM64L-G16RevA.03 25-Dec-2016

 ----------------------------------------------------------------------
 # PBE1PBE/def2TZVP empiricaldispersion=GD3BJ scf=maxcycle=999 geom=che
 ck pop=nbo
 ----------------------------------------------------------------------

 ---------
 1fj0_II_Q
 ---------
 Structure from the checkpoint file:  "1fj0_II_Q.chk"
 Charge =  0 Multiplicity = 5

                         Standard orientation:
 ---------------------------------------------------------------------
 Center     Atomic      Atomic             Coordinates (Angstroms)
 Number     Number       Type             X           Y           Z
 ---------------------------------------------------------------------
      1          6           0        2.539931   -1.278184    5.085850
      2          6           0        1.743601   -0.939978    3.869973
      3          7           0        0.352443   -0.941403    3.882255
      4          6           0        2.133309   -0.639332    2.603317
      5          6           0       -0.077681   -0.632783    2.662464
      6          7           0        0.963003   -0.455113    1.869615
      7          6           0       -0.859115    2.787809   -2.642729
      8          6           0        0.544383    2.166189   -2.670075
      9         16           0        0.459986    0.386385   -2.341597
     10          6           0        1.849296   -0.173942   -3.327237
     11         26           0        0.811159   -0.067953   -0.075309
     12          6           0       -2.602792   -0.149521   -0.064561
     13          6           0        0.888636   -3.461654   -0.669057
     14          6           0        4.188172    0.060896   -0.459554
     15          6           0        0.760016    3.217479    0.826950
     16          7           0       -0.579282   -1.502263   -0.308370
     17          6           0       -1.960176   -1.333465   -0.314903
     18          6           0       -2.571809   -2.591331   -0.626017
     19          6           0       -1.605098   -3.506648   -0.775083
     20          6           0       -0.342203   -2.836626   -0.598694
     21          6           0       -1.744385   -5.001413   -1.136408
     22          6           0       -4.109400   -2.810727   -0.678349
     23          6           0       -4.527023   -3.330651    0.718075
     24          6           0       -5.996295   -3.442938    1.015596
     25          8           0       -6.788232   -3.357567    0.053999
     26          8           0       -6.316155   -3.644956    2.219533
     27          7           0        2.240884   -1.415431   -0.492459
     28          6           0        2.088096   -2.785525   -0.596191
     29          6           0        3.392625   -3.414696   -0.683610
     30          6           0        4.316536   -2.446832   -0.640186
     31          6           0        3.603636   -1.193190   -0.550421
     32          6           0        3.600413   -4.941865   -0.770519
     33          6           0        5.841517   -2.583307   -0.740735
     34          6           0        6.162599   -3.315116   -2.057681
     35          7           0        2.184827    1.374060    0.113843
     36          6           0        3.551012    1.208002   -0.067117
     37          6           0        4.199616    2.459289    0.233433
     38          6           0        3.266056    3.353099    0.568034
     39          6           0        1.984638    2.671320    0.523071
     40          6           0        5.751763    2.617138    0.146257
     41          6           0        3.442570    4.798450    1.065244
     42          6           0        4.224180    5.815760    0.213326
     43          7           0       -0.626196    1.272329    0.324640
     44          6           0       -0.462252    2.575486    0.689058
     45          6           0       -1.758196    3.199555    0.882864
     46          6           0       -2.678118    2.267607    0.639832
     47          6           0       -1.995077    1.039415    0.266610
     48          6           0       -1.905585    4.681215    1.313350
     49          6           0       -4.228242    2.412735    0.631944
     50          6           0       -4.682397    2.589499   -0.854275
     51          6           0       -5.995694    3.283586   -1.089952
     52          8           0       -6.751257    3.384018   -0.126466
     53          8           0       -6.212404    3.695924   -2.278297
     54          1           0        3.022254    5.096742    2.002931
     55          1           0        3.725768    5.954246   -0.723321
     56          1           0        4.275420    6.750407    0.731697
     57          1           0        5.214418    5.449458    0.039684
     58          1           0        6.163916    1.793946   -0.399074
     59          1           0        5.989632    3.531979   -0.355125
     60          1           0        6.164593    2.633577    1.133273
     61          1           0        5.223646    0.139000   -0.717613
     62          1           0        5.293551   -3.840458   -2.394834
     63          1           0        6.458395   -2.602323   -2.798851
     64          1           0        6.958874   -4.010882   -1.894114
     65          1           0        6.554580   -2.232773   -0.024099
     66          1           0        2.740386   -5.393897   -1.218761
     67          1           0        4.464435   -5.150940   -1.366046
     68          1           0        3.740444   -5.339308    0.213011
     69          1           0        0.911826   -4.524980   -0.786102
     70          1           0       -2.770292   -5.224279   -1.343161
     71          1           0       -1.151525   -5.216133   -2.000879
     72          1           0       -1.407860   -5.599632   -0.315564
     73          1           0       -3.670628   -0.149696   -0.132586
     74          1           0       -2.585720    4.747441    2.136716
     75          1           0       -0.950685    5.063741    1.607866
     76          1           0       -2.282099    5.255316    0.492652
     77          1           0        0.748615    4.220088    1.200509
     78          1           0       -4.676920    1.534149    1.046280
     79          1           0       -4.515140    3.270671    1.203377
     80          1           0       -3.922525    3.142157   -1.366195
     81          1           0       -4.740707    1.617374   -1.297527
     82          1           0       -6.823287    3.221620   -2.847031
     83          1           0       -7.443229   -4.044303   -0.090824
     84          1           0       -4.094466   -4.300888    0.846271
     85          1           0       -4.096243   -2.679250    1.449516
     86          1           0       -4.351233   -3.535776   -1.427162
     87          1           0       -4.604953   -1.886046   -0.888805
     88          1           0        1.513913   -0.904210   -4.033725
     89          1           0        2.275048    0.657692   -3.848792
     90          1           0        2.587917   -0.609649   -2.687317
     91          1           0       -1.527317    2.136952   -2.118524
     92          1           0       -0.820249    3.734570   -2.145703
     93          1           0       -1.207958    2.925150   -3.644899
     94          1           0        0.982435    2.326676   -3.633016
     95          1           0        1.151894    2.634088   -1.923817
     96          1           0        3.137283   -0.559983    2.241876
     97          1           0       -1.103063   -0.542826    2.370233
     98          1           0       -0.225573   -1.140588    4.673598
     99          1           0        2.591552   -2.341449    5.194030
    100          1           0        3.528644   -0.881372    4.986422
    101          1           0        2.070585   -0.854234    5.948915
 ---------------------------------------------------------------------

 SCF Done:  E(UPBE1PBE) =  -3880.54835347     A.U. after   85 cycles

 Alpha virt. eigenvalues --    1.04206   1.04479   1.04891   1.05214   1.05436
 Alpha virt. eigenvalues --    1.05580   1.05658   1.05876   1.06038   1.06180
 Alpha virt. eigenvalues --    1.06619   1.07173   1.07354   1.07612   1.07927

  Beta  occ. eigenvalues -- -256.31493 -89.00839 -30.06188 -25.90817 -25.88726
  Beta  occ. eigenvalues --  -25.87752 -19.26714 -19.25292 -19.18449 -19.17819
  Beta  occ. eigenvalues --  -14.44337 -14.38312 -14.37019 -14.37004 -14.35627
  Beta  occ. eigenvalues --  -14.35423 -10.35345 -10.35023 -10.27609 -10.26004
  Beta  occ. eigenvalues --  -10.24048 -10.23923 -10.23916 -10.23909 -10.23779
  Beta  occ. eigenvalues --  -10.23768 -10.23747 -10.23584 -10.23461 -10.22806
  Beta  occ. eigenvalues --  -10.22747 -10.22674 -10.22650 -10.22565 -10.22461
  Beta  occ. eigenvalues --  -10.22332 -10.22010 -10.21899 -10.21734 -10.21690
  Beta  occ. eigenvalues --  -10.21557 -10.21543 -10.21473 -10.21468 -10.21462
  Beta  occ. eigenvalues --  -10.21405 -10.21301 -10.21212 -10.21157 -10.21052
  Beta  occ. eigenvalues --  -10.21035 -10.20946 -10.20922 -10.20896 -10.20822
  Beta  occ. eigenvalues --  -10.20767 -10.19313  -7.98710  -5.92369  -5.92058
  Beta  occ. eigenvalues --   -5.91531  -3.38447  -2.16444  -2.13819  -2.10257
  Beta  occ. eigenvalues --   -1.17262  -1.15422  -1.05577  -1.03982  -1.02117
  Beta  occ. eigenvalues --   -0.97199  -0.96339  -0.95981  -0.95118  -0.90236
  Beta  occ. eigenvalues --   -0.83488  -0.82967  -0.82674  -0.82091  -0.81251
  Beta  occ. eigenvalues --   -0.81142  -0.80673  -0.80554  -0.79922  -0.78615
  Beta  occ. eigenvalues --   -0.77984  -0.75837  -0.75532  -0.75184  -0.75152
  Beta  occ. eigenvalues --   -0.73626  -0.72536  -0.72352  -0.71705  -0.71220
  Beta  occ. eigenvalues --   -0.69890  -0.69206  -0.68865  -0.66226  -0.65926
  Beta  occ. eigenvalues --   -0.65435  -0.64966  -0.64280  -0.64079  -0.61884
  Beta  occ. eigenvalues --   -0.61277  -0.60799  -0.59730  -0.58839  -0.57356
  Beta  occ. eigenvalues --   -0.56306  -0.55318  -0.54206  -0.53915  -0.53068
  Beta  occ. eigenvalues --   -0.52126  -0.52036  -0.51861  -0.51612  -0.51136
  Beta  occ. eigenvalues --   -0.50676  -0.50165  -0.48913  -0.48534  -0.48182
  Beta  occ. eigenvalues --   -0.48084  -0.47905  -0.47684  -0.47617  -0.47362
  Beta  occ. eigenvalues --   -0.46159  -0.45617  -0.45131  -0.45097  -0.44624
  Beta  occ. eigenvalues --   -0.44448  -0.44127  -0.44049  -0.43787  -0.43701
  Beta  occ. eigenvalues --   -0.43395  -0.43361  -0.43127  -0.43057  -0.42993
  Beta  occ. eigenvalues --   -0.42796  -0.42562  -0.42330  -0.42154  -0.42020
  Beta  occ. eigenvalues --   -0.41365  -0.41260  -0.41090  -0.40818  -0.40428
  Beta  occ. eigenvalues --   -0.40266  -0.40091  -0.39480  -0.39262  -0.39220
  Beta  occ. eigenvalues --   -0.38950  -0.38739  -0.38360  -0.38203  -0.37955
  Beta  occ. eigenvalues --   -0.37839  -0.37432  -0.37382  -0.37294  -0.36975
  Beta  occ. eigenvalues --   -0.36522  -0.36434  -0.36263  -0.35960  -0.35597
  Beta  occ. eigenvalues --   -0.34926  -0.34454  -0.34391  -0.34136  -0.33630
  Beta  occ. eigenvalues --   -0.33176  -0.32898  -0.32591  -0.32514  -0.32070
  Beta  occ. eigenvalues --   -0.31752  -0.31319  -0.29872  -0.29340  -0.28169
  Beta  occ. eigenvalues --   -0.27965  -0.27848  -0.27476  -0.25756  -0.24882
  Beta  occ. eigenvalues --   -0.24139  -0.23956  -0.23515  -0.22981  -0.18791
  Beta  occ. eigenvalues --   -0.18458  -0.17547  -0.15063
  Beta virt. eigenvalues --   -0.06773  -0.06394  -0.04018  -0.03425  -0.01163
  Beta virt. eigenvalues --   -0.00897   0.00034   0.00482   0.02159   0.02526
  Beta virt. eigenvalues --    0.03008   0.03328   0.04011   0.04341   0.04597

 Mulliken charges and spin densities:
               1          2
     1  C   -0.385938   0.000376
     2  C    0.176288   0.003493
     3  N   -0.223441  -0.001425
     4  C   -0.218951  -0.003441
     5  C    0.004727  -0.013037
     6  N    0.077005   0.006675
     7  C   -0.362056  -0.000329
     8  C   -0.156182  -0.002569
     9  S    0.029856   0.008063
    10  C   -0.348482  -0.001859
    11  Fe  -0.327252   2.149595
    12  C   -0.518382  -0.011211
    13  C   -0.528400   0.008333
    14  C   -0.516630   0.023859
    15  C   -0.484629  -0.017452
    16  N    0.013869  -0.023177
    17  C    0.270300  -0.013578
    18  C    0.026460  -0.002663
    19  C   -0.079071  -0.008726
    20  C    0.231269  -0.018951
    21  C   -0.417709   0.000692
    22  C   -0.328934   0.000982
    23  C   -0.198883  -0.000526
    24  C    0.271352  -0.000009
    25  O   -0.334174  -0.000002
    26  O   -0.366423  -0.000051
    27  N   -0.081656   0.072900
    28  C    0.353087  -0.028246
    29  C   -0.137820   0.099565
    30  C    0.068409  -0.139998
    31  C    0.079149  -0.017456
    32  C   -0.353787  -0.003915
    33  C   -0.276728   1.040653
    34  C   -0.334563  -0.066435
    35  N    0.029099  -0.009242
    36  C    0.325497  -0.044473
    37  C   -0.047279   0.120062
    38  C    0.013581  -0.168297
    39  C    0.133137   0.010647
    40  C   -0.371979  -0.008205
    41  C   -0.283830   1.029607
    42  C   -0.322482  -0.070380
    43  N    0.011611   0.048407
    44  C    0.359435  -0.001719
    45  C   -0.091964  -0.002794
    46  C   -0.004571   0.002291
    47  C    0.141916  -0.006752
    48  C   -0.410587   0.000937
    49  C   -0.215641   0.001117
    50  C   -0.265574   0.000005
    51  C    0.296602   0.000091
    52  O   -0.313617  -0.000062
    53  O   -0.371205  -0.000001
    54  H    0.135758  -0.049952
    55  H    0.133062   0.035055
    56  H    0.120861   0.000649
    57  H    0.117006   0.033859
    58  H    0.121324   0.000622
    59  H    0.119120   0.002288
    60  H    0.139374   0.004623
    61  H    0.108658   0.001995
    62  H    0.134698   0.005130
    63  H    0.129438   0.041378
    64  H    0.119270   0.015362
    65  H    0.147275  -0.050602
    66  H    0.123108   0.000166
    67  H    0.120449   0.001557
    68  H    0.139959   0.003559
    69  H    0.119904  -0.000487
    70  H    0.123801  -0.000065
    71  H    0.142215  -0.000424
    72  H    0.141014  -0.000486
    73  H    0.098514   0.000306
    74  H    0.137271   0.000304
    75  H    0.125536   0.000129
    76  H    0.136657   0.000033
    77  H    0.085454   0.006868
    78  H    0.126002  -0.000285
    79  H    0.126350   0.000210
    80  H    0.144733  -0.000055
    81  H    0.116396   0.000042
    82  H    0.350522   0.000006
    83  H    0.352046  -0.000009
    84  H    0.134316   0.000024
    85  H    0.138132   0.000143
    86  H    0.118847  -0.000114
    87  H    0.121279  -0.000044
    88  H    0.140582  -0.000036
    89  H    0.128211  -0.000486
    90  H    0.146165   0.001463
    91  H    0.140642  -0.000214
    92  H    0.109117   0.000526
    93  H    0.117812   0.000262
    94  H    0.118976  -0.000186
    95  H    0.136177   0.001352
    96  H    0.151389   0.000838
    97  H    0.181980   0.001541
    98  H    0.231941   0.001578
    99  H    0.143370   0.000090
   100  H    0.144744  -0.000044
   101  H    0.126716   0.000161
 Sum of Mulliken charges =  -0.00000   4.00000

 Dipole moment (field-independent basis, Debye):
    X=              2.4711    Y=             -2.5926    Z=             -1.5473  Tot=              3.9016
 Quadrupole moment (field-independent basis, Debye-Ang):
   XX=           -323.6345   YY=           -313.0385   ZZ=           -300.9026
   XY=             18.1485   XZ=             36.3574   YZ=              1.9685

 Summary of Natural Population Analysis:

                                       Natural Population
                Natural  -----------------------------------------------
    Atom  No    Charge         Core      Valence    Rydberg      Total
 -----------------------------------------------------------------------
      C    1   -0.31962      0.99969     2.31678    0.00315     3.31962
      C    2    0.05282      0.99955     1.93840    0.00922     2.94718
      N    3   -0.24500      0.99969     2.73537    0.00993     3.74500
      C    4   -0.04065      0.99942     2.03169    0.00954     3.04065
      C    5    0.09112      0.99965     1.89774    0.01149     2.90888
      N    6   -0.16821      0.99969     2.63829    0.03023     3.66821
      C    7   -0.30917      0.99972     2.30514    0.00431     3.30917
      C    8   -0.26423      0.99966     2.25514    0.00943     3.26423
      S    9    0.27359      4.99927     2.70511    0.02203     7.72641
      C   10   -0.37755      0.99965     2.36917    0.00873     3.37755
     Fe   11    1.08662      8.99499     2.89099    0.02740    11.91338
      C   12   -0.12883      0.99945     2.12066    0.00872     3.12883
      C   13   -0.11345      0.99947     2.10566    0.00833     3.11345
      C   14   -0.11852      0.99946     2.11065    0.00841     3.11852
      C   15   -0.13159      0.99947     2.12388    0.00825     3.13159
      N   16   -0.19438      0.99970     2.67289    0.02180     3.69438
      C   17    0.05514      0.99948     1.93460    0.01077     2.94486
      C   18   -0.02069      0.99936     2.01155    0.00978     3.02069
      C   19   -0.02081      0.99936     2.01275    0.00869     3.02081
      C   20    0.06245      0.99950     1.92748    0.01056     2.93755
      C   21   -0.31832      0.99970     2.31507    0.00355     3.31832
      C   22   -0.20887      0.99968     2.20244    0.00675     3.20887
      C   23   -0.25317      0.99962     2.24476    0.00879     3.25317
      C   24    0.38247      0.99973     1.59990    0.01789     2.61753
      O   25   -0.33448      0.99980     3.32053    0.01415     4.33448
      O   26   -0.29570      0.99990     3.28434    0.01146     4.29570
      N   27   -0.16446      0.99972     2.64435    0.02039     3.66446
      C   28    0.05855      0.99952     1.93118    0.01076     2.94145
      C   29    0.03466      0.99936     1.95719    0.00879     2.96534
      C   30   -0.10130      0.99936     2.09214    0.00980     3.10130
      C   31    0.07067      0.99951     1.91921    0.01061     2.92933
      C   32   -0.31841      0.99970     2.31511    0.00360     3.31841
      C   33    0.42016      0.99974     1.57550    0.00461     2.57984
      C   34   -0.35568      0.99972     2.35249    0.00348     3.35568
      N   35   -0.18961      0.99969     2.66847    0.02145     3.68961
      C   36    0.04621      0.99949     1.94375    0.01056     2.95379
      C   37    0.04453      0.99934     1.94753    0.00860     2.95547
      C   38   -0.11439      0.99935     2.10528    0.00975     3.11439
      C   39    0.08925      0.99951     1.90094    0.01030     2.91075
      C   40   -0.31641      0.99970     2.31320    0.00351     3.31641
      C   41    0.42178      0.99974     1.57380    0.00468     2.57822
      C   42   -0.35883      0.99972     2.35576    0.00335     3.35883
      N   43   -0.17851      0.99971     2.65828    0.02053     3.67851
      C   44    0.07554      0.99952     1.91374    0.01120     2.92446
      C   45   -0.01962      0.99934     2.01124    0.00904     3.01962
      C   46   -0.01793      0.99935     2.00914    0.00944     3.01793
      C   47    0.05876      0.99951     1.93113    0.01060     2.94124
      C   48   -0.31560      0.99970     2.31220    0.00370     3.31560
      C   49   -0.20760      0.99968     2.20084    0.00708     3.20760
      C   50   -0.25658      0.99962     2.24838    0.00859     3.25658
      C   51    0.38596      0.99972     1.59653    0.01778     2.61404
      O   52   -0.28056      0.99988     3.26810    0.01258     4.28056
      O   53   -0.34697      0.99982     3.33345    0.01371     4.34697
      H   54    0.07646      0.00000     0.42270    0.00085     0.42354
      H   55    0.12662      0.00000     0.37287    0.00051     0.37338
      H   56    0.10749      0.00000     0.39191    0.00060     0.39251
      H   57    0.12225      0.00000     0.37705    0.00070     0.37775
      H   58    0.10633      0.00000     0.39309    0.00058     0.39367
      H   59    0.10857      0.00000     0.39065    0.00078     0.39143
      H   60    0.11152      0.00000     0.38777    0.00072     0.38848
      H   61    0.11005      0.00000     0.38872    0.00122     0.38995
      H   62    0.11136      0.00000     0.38796    0.00068     0.38864
      H   63    0.13025      0.00000     0.36922    0.00052     0.36975
      H   64    0.11299      0.00000     0.38634    0.00067     0.38701
      H   65    0.08203      0.00000     0.41715    0.00083     0.41797
      H   66    0.10670      0.00000     0.39266    0.00065     0.39330
      H   67    0.10887      0.00000     0.39031    0.00082     0.39113
      H   68    0.11250      0.00000     0.38675    0.00075     0.38750
      H   69    0.10850      0.00000     0.39020    0.00130     0.39150
      H   70    0.10656      0.00000     0.39273    0.00071     0.39344
      H   71    0.11054      0.00000     0.38868    0.00079     0.38946
      H   72    0.10900      0.00000     0.39020    0.00079     0.39100
      H   73    0.10707      0.00000     0.39157    0.00136     0.39293
      H   74    0.11049      0.00000     0.38875    0.00076     0.38951
      H   75    0.10709      0.00000     0.39232    0.00058     0.39291
      H   76    0.10906      0.00000     0.39016    0.00078     0.39094
      H   77    0.10931      0.00000     0.38931    0.00138     0.39069
      H   78    0.10856      0.00000     0.39068    0.00077     0.39144
      H   79    0.11625      0.00000     0.38302    0.00073     0.38375
      H   80    0.11595      0.00000     0.38338    0.00066     0.38405
      H   81    0.11459      0.00000     0.38475    0.00066     0.38541
      H   82    0.25748      0.00000     0.24130    0.00123     0.24252
      H   83    0.25848      0.00000     0.24017    0.00135     0.24152
      H   84    0.11985      0.00000     0.37953    0.00062     0.38015
      H   85    0.11991      0.00000     0.37943    0.00066     0.38009
      H   86    0.10736      0.00000     0.39182    0.00082     0.39264
      H   87    0.10694      0.00000     0.39231    0.00075     0.39306
      H   88    0.11092      0.00000     0.38860    0.00047     0.38908
      H   89    0.10992      0.00000     0.38930    0.00078     0.39008
      H   90    0.12073      0.00000     0.37854    0.00073     0.37927
      H   91    0.11162      0.00000     0.38700    0.00138     0.38838
      H   92    0.10729      0.00000     0.39201    0.00070     0.39271
      H   93    0.10269      0.00000     0.39662    0.00068     0.39731
      H   94    0.10649      0.00000     0.39274    0.00077     0.39351
      H   95    0.11359      0.00000     0.38528    0.00113     0.38641
      H   96    0.11787      0.00000     0.38137    0.00076     0.38213
      H   97    0.11390      0.00000     0.38512    0.00098     0.38610
      H   98    0.20760      0.00000     0.29159    0.00081     0.29240
      H   99    0.11116      0.00000     0.38811    0.00073     0.38884
      H  100    0.11674      0.00000     0.38277    0.00049     0.38326
      H  101    0.10795      0.00000     0.39134    0.00070     0.39205
 =======================================================================
   * Total *    2.00000     64.97369   137.41576    0.61055   203.00000

 Normal termination of Gaussian 16 at Fri Nov 11 04:27:15 2022.
