 Gaussian 16, Revision A.03,
 Gaussian 16:  ES64L-G16RevA.03 25-Dec-2016

 ---------------------------------------------------------------------
 # polar def2tzvp empiricaldispersion=gd3bj int=grid=ultrafine pbe1pbe
 ---------------------------------------------------------------------

 ---------
 1gu2_II_S
 ---------
 Symbolic Z-matrix:
 Charge =  0 Multiplicity = 1

                         Standard orientation:
 ---------------------------------------------------------------------
 Center     Atomic      Atomic             Coordinates (Angstroms)
 Number     Number       Type             X           Y           Z
 ---------------------------------------------------------------------
      1          6           0        2.698918    0.347018    5.433796
      2          6           0        1.938739    0.438656    4.147828
      3          7           0        0.671762    0.967721    4.060266
      4          6           0        2.204570    0.054638    2.895779
      5          6           0        0.217809    0.898852    2.797353
      6          7           0        1.145405    0.348909    2.056190
      7          6           0       -1.113624   -2.085795   -4.648404
      8          6           0       -0.393403   -1.234251   -3.652440
      9          7           0       -0.091089    0.102830   -3.867974
     10          6           0        0.048347   -1.493245   -2.409559
     11          6           0        0.495534    0.607666   -2.795519
     12          7           0        0.592931   -0.355205   -1.870202
     13         26           0        0.877727   -0.031142    0.089943
     14          6           0       -2.519947    0.390862    0.090728
     15          6           0        0.450880   -3.327379    0.859204
     16          6           0        4.238724   -0.543388   -0.406490
     17          6           0        1.298327    3.349264   -0.319176
     18          7           0       -0.693516   -1.215087    0.472004
     19          6           0       -2.055300   -0.872145    0.413760
     20          6           0       -2.859758   -2.023750    0.714619
     21          6           0       -2.029785   -3.047021    0.978035
     22          6           0       -0.684508   -2.561065    0.788910
     23          6           0       -2.393923   -4.503734    1.361349
     24          6           0       -4.397954   -2.037832    0.730338
     25          6           0       -4.995046   -2.462852   -0.623842
     26          6           0       -6.484942   -2.452941   -0.612293
     27          8           0       -7.085137   -2.190174   -1.677112
     28          8           0       -7.114122   -2.699345    0.430064
     29          7           0        2.090837   -1.627940    0.189760
     30          6           0        1.736006   -2.911966    0.496014
     31          6           0        2.892790   -3.785233    0.344803
     32          6           0        3.944876   -3.007423   -0.037460
     33          6           0        3.443181   -1.653672   -0.105621
     34          6           0        2.902186   -5.307377    0.568938
     35          6           0        5.411914   -3.405128   -0.322897
     36          6           0        5.504423   -4.436525   -1.445328
     37          7           0        2.444562    1.163307   -0.273378
     38          6           0        3.774846    0.763008   -0.412423
     39          6           0        4.618830    1.932660   -0.529526
     40          6           0        3.805552    3.029862   -0.483297
     41          6           0        2.456976    2.558374   -0.335715
     42          6           0        6.154929    1.831415   -0.620627
     43          6           0        4.161565    4.516713   -0.466643
     44          6           0        4.961420    4.955657   -1.688847
     45          7           0       -0.351478    1.528246   -0.071983
     46          6           0        0.011679    2.866860   -0.275612
     47          6           0       -1.160418    3.657913   -0.541510
     48          6           0       -2.220799    2.798659   -0.611744
     49          6           0       -1.740911    1.500444   -0.193139
     50          6           0       -1.179308    5.181838   -0.756497
     51          6           0       -3.646196    3.155070   -1.106099
     52          6           0       -4.464949    3.952520   -0.060001
     53          6           0       -5.260423    3.082709    0.890747
     54          8           0       -5.638214    3.531403    2.012063
     55          8           0       -5.564904    1.913509    0.536216
     56          1           0       -0.650049   -1.982705   -5.607243
     57          1           0       -1.070739   -3.109400   -4.339708
     58          1           0       -2.135469   -1.774642   -4.710971
     59          1           0        0.835302    1.616330   -2.685725
     60          1           0       -0.287307    0.608664   -4.707992
     61          1           0       -0.014957   -2.440898   -1.916764
     62          1           0        5.962654   -3.990125   -2.303028
     63          1           0        6.093517   -5.267726   -1.118260
     64          1           0        4.521914   -4.774375   -1.701127
     65          1           0        6.256240   -3.007481    0.200450
     66          1           0        3.379765   -5.786980   -0.259796
     67          1           0        3.437205   -5.532225    1.467881
     68          1           0        1.896122   -5.661493    0.654603
     69          1           0        0.344354   -4.328052    1.222805
     70          1           0       -2.141874   -5.158706    0.553648
     71          1           0       -1.847835   -4.789520    2.236000
     72          1           0       -3.443484   -4.568778    1.559064
     73          1           0       -4.649886   -1.790348   -1.381142
     74          1           0       -4.656868   -3.450892   -0.856889
     75          1           0       -4.750546   -1.056768    0.971362
     76          1           0       -4.730073   -2.720383    1.484474
     77          1           0       -8.071566   -2.630118    0.440536
     78          1           0       -6.099356    4.371907    2.062075
     79          1           0       -3.790808    4.554508    0.512751
     80          1           0       -5.142695    4.598042   -0.578521
     81          1           0       -3.564906    3.740057   -1.998333
     82          1           0       -4.168106    2.249203   -1.333949
     83          1           0       -3.581266    0.522654    0.057086
     84          1           0       -1.714109    5.408668   -1.655071
     85          1           0       -1.661535    5.653279    0.074226
     86          1           0       -0.175412    5.542994   -0.838104
     87          1           0        1.426073    4.411360   -0.342283
     88          1           0        4.357809    5.593913   -2.299734
     89          1           0        5.834476    5.486841   -1.371804
     90          1           0        5.253112    4.094159   -2.252440
     91          1           0        3.878345    5.181736    0.322299
     92          1           0        6.516165    2.531257   -1.344940
     93          1           0        6.584207    2.052710    0.334176
     94          1           0        6.430233    0.840028   -0.914328
     95          1           0        5.267623   -0.712521   -0.646614
     96          1           0        3.396316    1.156261    5.494309
     97          1           0        2.016579    0.401964    6.256167
     98          1           0        3.227331   -0.582686    5.470284
     99          1           0        0.159884    1.350300    4.829431
    100          1           0       -0.738632    1.236058    2.456159
    101          1           0        3.113512   -0.416595    2.584873
 ---------------------------------------------------------------------

 SCF Done:  E(RPBE1PBE) =  -3628.79086716     A.U. after   31 cycles

 The electronic state is 1-A.
 Alpha  occ. eigenvalues -- -256.29587 -30.06613 -25.89424 -25.89156 -25.88908
 Alpha  occ. eigenvalues --  -19.26783 -19.25909 -19.18656 -19.15666 -14.43745
 Alpha  occ. eigenvalues --  -14.43428 -14.37907 -14.37757 -14.35946 -14.35573
 Alpha  occ. eigenvalues --  -14.35560 -14.34867 -10.36142 -10.33656 -10.27046
 Alpha  occ. eigenvalues --  -10.26734 -10.25004 -10.24871 -10.23825 -10.23420
 Alpha  occ. eigenvalues --  -10.23238 -10.23167 -10.23154 -10.23115 -10.22872
 Alpha  occ. eigenvalues --  -10.22783 -10.22723 -10.22662 -10.22655 -10.22489
 Alpha  occ. eigenvalues --  -10.22466 -10.22205 -10.22129 -10.22032 -10.21959
 Alpha  occ. eigenvalues --  -10.21538 -10.21382 -10.21330 -10.21264 -10.21037
 Alpha  occ. eigenvalues --  -10.21034 -10.20953 -10.20749 -10.20740 -10.20442
 Alpha  occ. eigenvalues --  -10.20417 -10.20359 -10.20186 -10.19948 -10.19876
 Alpha  occ. eigenvalues --  -10.19784 -10.19645 -10.19606 -10.19581  -3.40990
 Alpha  occ. eigenvalues --   -2.16903  -2.16444  -2.16080  -1.16840  -1.16725
 Alpha  occ. eigenvalues --   -1.05250  -1.05169  -1.02962  -1.00699  -0.95654
 Alpha  occ. eigenvalues --   -0.94695  -0.94552  -0.93584  -0.89818  -0.89584
 Alpha  occ. eigenvalues --   -0.82734  -0.82558  -0.81621  -0.80676  -0.80574
 Alpha  occ. eigenvalues --   -0.79799  -0.79648  -0.79270  -0.79026  -0.78144
 Alpha  occ. eigenvalues --   -0.77635  -0.75371  -0.74668  -0.73660  -0.72974
 Alpha  occ. eigenvalues --   -0.72387  -0.72046  -0.71737  -0.70742  -0.69760
 Alpha  occ. eigenvalues --   -0.69629  -0.68843  -0.67794  -0.66113  -0.65003
 Alpha  occ. eigenvalues --   -0.63870  -0.63826  -0.63610  -0.63411  -0.61071
 Alpha  occ. eigenvalues --   -0.60917  -0.60877  -0.60510  -0.57491  -0.55940
 Alpha  occ. eigenvalues --   -0.55867  -0.55644  -0.54925  -0.53671  -0.53390
 Alpha  occ. eigenvalues --   -0.52746  -0.52020  -0.51188  -0.50962  -0.50387
 Alpha  occ. eigenvalues --   -0.50106  -0.49612  -0.49432  -0.48161  -0.48101
 Alpha  occ. eigenvalues --   -0.47501  -0.47319  -0.47226  -0.47126  -0.46986
 Alpha  occ. eigenvalues --   -0.46798  -0.46618  -0.45234  -0.44938  -0.44206
 Alpha  occ. eigenvalues --   -0.43901  -0.43728  -0.43531  -0.43110  -0.43065
 Alpha  occ. eigenvalues --   -0.42798  -0.42717  -0.42619  -0.42482  -0.42388
 Alpha  occ. eigenvalues --   -0.42306  -0.42298  -0.42165  -0.41811  -0.41679
 Alpha  occ. eigenvalues --   -0.41640  -0.41491  -0.41342  -0.41094  -0.40539
 Alpha  occ. eigenvalues --   -0.40250  -0.40171  -0.39976  -0.39562  -0.39485
 Alpha  occ. eigenvalues --   -0.39207  -0.38729  -0.38448  -0.38175  -0.38086
 Alpha  occ. eigenvalues --   -0.37773  -0.37471  -0.37134  -0.36988  -0.36668
 Alpha  occ. eigenvalues --   -0.36366  -0.36233  -0.35859  -0.35568  -0.35546
 Alpha  occ. eigenvalues --   -0.34863  -0.34497  -0.34099  -0.33408  -0.33271
 Alpha  occ. eigenvalues --   -0.32710  -0.32437  -0.32040  -0.31111  -0.30878
 Alpha  occ. eigenvalues --   -0.30733  -0.30570  -0.30369  -0.28538  -0.28399
 Alpha  occ. eigenvalues --   -0.28261  -0.26770  -0.26492  -0.26042  -0.24457
 Alpha  occ. eigenvalues --   -0.24137  -0.23221  -0.23181  -0.22901  -0.22031
 Alpha  occ. eigenvalues --   -0.18748  -0.17905  -0.17374  -0.17220  -0.16781
 Alpha  occ. eigenvalues --   -0.12370
 Alpha virt. eigenvalues --   -0.09996  -0.05194  -0.05029  -0.01559   0.00525
 Alpha virt. eigenvalues --    0.01917   0.02545   0.02754   0.02790   0.03284
 Alpha virt. eigenvalues --    0.03626   0.03998   0.04542   0.05256   0.05473

 Mulliken charges:
               1
     1  C   -0.368932
     2  C    0.171756
     3  N   -0.228682
     4  C   -0.209999
     5  C    0.023485
     6  N    0.119723
     7  C   -0.382520
     8  C    0.150441
     9  N   -0.212048
    10  C   -0.180260
    11  C    0.014712
    12  N    0.071927
    13  Fe  -0.449252
    14  C   -0.591004
    15  C   -0.522486
    16  C   -0.503542
    17  C   -0.540573
    18  N    0.000674
    19  C    0.256521
    20  C    0.072980
    21  C   -0.059862
    22  C    0.186031
    23  C   -0.410227
    24  C   -0.445440
    25  C   -0.118118
    26  C    0.245889
    27  O   -0.398016
    28  O   -0.318209
    29  N    0.002253
    30  C    0.256163
    31  C   -0.067135
    32  C    0.006201
    33  C    0.177637
    34  C   -0.357491
    35  C   -0.321039
    36  C   -0.325218
    37  N    0.013404
    38  C    0.336661
    39  C   -0.140690
    40  C    0.044941
    41  C    0.191775
    42  C   -0.357536
    43  C   -0.317078
    44  C   -0.320756
    45  N   -0.053661
    46  C    0.235460
    47  C   -0.038197
    48  C   -0.147828
    49  C    0.298324
    50  C   -0.378779
    51  C   -0.221418
    52  C   -0.232966
    53  C    0.328101
    54  O   -0.334852
    55  O   -0.373705
    56  H    0.128830
    57  H    0.143623
    58  H    0.145876
    59  H    0.179881
    60  H    0.226784
    61  H    0.149069
    62  H    0.132683
    63  H    0.117871
    64  H    0.133804
    65  H    0.143604
    66  H    0.118142
    67  H    0.131440
    68  H    0.113921
    69  H    0.108594
    70  H    0.140943
    71  H    0.137566
    72  H    0.127837
    73  H    0.137185
    74  H    0.122246
    75  H    0.156602
    76  H    0.129115
    77  H    0.343022
    78  H    0.344911
    79  H    0.118053
    80  H    0.129009
    81  H    0.124296
    82  H    0.155737
    83  H    0.175527
    84  H    0.126057
    85  H    0.128553
    86  H    0.129478
    87  H    0.086022
    88  H    0.128525
    89  H    0.117736
    90  H    0.133332
    91  H    0.137186
    92  H    0.116453
    93  H    0.131437
    94  H    0.122945
    95  H    0.093517
    96  H    0.147652
    97  H    0.119600
    98  H    0.150335
    99  H    0.221607
   100  H    0.173876
   101  H    0.141975
 Sum of Mulliken charges =  -0.00000

 Dipole moment (field-independent basis, Debye):
    X=             -2.5243    Y=              4.6326    Z=              2.6111  Tot=              5.8865
 Quadrupole moment (field-independent basis, Debye-Ang):
   XX=           -329.1292   YY=           -291.0114   ZZ=           -282.7392
   XY=            -23.0075   XZ=            -15.4612   YZ=              3.5512

  Exact polarizability: 893.218 -26.0151056.235 -25.780 -44.371 454.778
 Approx polarizability:1683.910-729.4757787.218 -48.914-300.991 713.187

 Normal termination of Gaussian 16 at Tue Jan 17 11:32:59 2023.
