 Gaussian 16, Revision A.03,
 Gaussian 16:  ES64L-G16RevA.03 25-Dec-2016

 ----------------------------------------------------------------------
 # PBE1PBE/def2TZVP scf=maxcycle=999 empiricaldispersion=GD3BJ int=(gri
 d=ultrafine) geom=check pop=nbo
 ----------------------------------------------------------------------

 ---------
 1gu2_II_Q
 ---------
 Structure from the checkpoint file:  "1gu2_II_Q.chk"
 Charge =  0 Multiplicity = 5

                         Standard orientation:
 ---------------------------------------------------------------------
 Center     Atomic      Atomic             Coordinates (Angstroms)
 Number     Number       Type             X           Y           Z
 ---------------------------------------------------------------------
      1          6           0        2.698918    0.347018    5.433796
      2          6           0        1.938739    0.438656    4.147828
      3          7           0        0.671762    0.967721    4.060266
      4          6           0        2.204570    0.054638    2.895779
      5          6           0        0.217809    0.898852    2.797353
      6          7           0        1.145405    0.348909    2.056190
      7          6           0       -1.113624   -2.085795   -4.648404
      8          6           0       -0.393403   -1.234251   -3.652440
      9          7           0       -0.091089    0.102830   -3.867974
     10          6           0        0.048347   -1.493245   -2.409559
     11          6           0        0.495534    0.607666   -2.795519
     12          7           0        0.592931   -0.355205   -1.870202
     13         26           0        0.877727   -0.031142    0.089943
     14          6           0       -2.519947    0.390862    0.090728
     15          6           0        0.450880   -3.327379    0.859204
     16          6           0        4.238724   -0.543388   -0.406490
     17          6           0        1.298327    3.349264   -0.319176
     18          7           0       -0.693516   -1.215087    0.472004
     19          6           0       -2.055300   -0.872145    0.413760
     20          6           0       -2.859758   -2.023750    0.714619
     21          6           0       -2.029785   -3.047021    0.978035
     22          6           0       -0.684508   -2.561065    0.788910
     23          6           0       -2.393923   -4.503734    1.361349
     24          6           0       -4.397954   -2.037832    0.730338
     25          6           0       -4.995046   -2.462852   -0.623842
     26          6           0       -6.484942   -2.452941   -0.612293
     27          8           0       -7.085137   -2.190174   -1.677112
     28          8           0       -7.114122   -2.699345    0.430064
     29          7           0        2.090837   -1.627940    0.189760
     30          6           0        1.736006   -2.911966    0.496014
     31          6           0        2.892790   -3.785233    0.344803
     32          6           0        3.944876   -3.007423   -0.037460
     33          6           0        3.443181   -1.653672   -0.105621
     34          6           0        2.902186   -5.307377    0.568938
     35          6           0        5.411914   -3.405128   -0.322897
     36          6           0        5.504423   -4.436525   -1.445328
     37          7           0        2.444562    1.163307   -0.273378
     38          6           0        3.774846    0.763008   -0.412423
     39          6           0        4.618830    1.932660   -0.529526
     40          6           0        3.805552    3.029862   -0.483297
     41          6           0        2.456976    2.558374   -0.335715
     42          6           0        6.154929    1.831415   -0.620627
     43          6           0        4.161565    4.516713   -0.466643
     44          6           0        4.961420    4.955657   -1.688847
     45          7           0       -0.351478    1.528246   -0.071983
     46          6           0        0.011679    2.866860   -0.275612
     47          6           0       -1.160418    3.657913   -0.541510
     48          6           0       -2.220799    2.798659   -0.611744
     49          6           0       -1.740911    1.500444   -0.193139
     50          6           0       -1.179308    5.181838   -0.756497
     51          6           0       -3.646196    3.155070   -1.106099
     52          6           0       -4.464949    3.952520   -0.060001
     53          6           0       -5.260423    3.082709    0.890747
     54          8           0       -5.638214    3.531403    2.012063
     55          8           0       -5.564904    1.913509    0.536216
     56          1           0       -0.650049   -1.982705   -5.607243
     57          1           0       -1.070739   -3.109400   -4.339708
     58          1           0       -2.135469   -1.774642   -4.710971
     59          1           0        0.835302    1.616330   -2.685725
     60          1           0       -0.287307    0.608664   -4.707992
     61          1           0       -0.014957   -2.440898   -1.916764
     62          1           0        5.962654   -3.990125   -2.303028
     63          1           0        6.093517   -5.267726   -1.118260
     64          1           0        4.521914   -4.774375   -1.701127
     65          1           0        6.256240   -3.007481    0.200450
     66          1           0        3.379765   -5.786980   -0.259796
     67          1           0        3.437205   -5.532225    1.467881
     68          1           0        1.896122   -5.661493    0.654603
     69          1           0        0.344354   -4.328052    1.222805
     70          1           0       -2.141874   -5.158706    0.553648
     71          1           0       -1.847835   -4.789520    2.236000
     72          1           0       -3.443484   -4.568778    1.559064
     73          1           0       -4.649886   -1.790348   -1.381142
     74          1           0       -4.656868   -3.450892   -0.856889
     75          1           0       -4.750546   -1.056768    0.971362
     76          1           0       -4.730073   -2.720383    1.484474
     77          1           0       -8.071566   -2.630118    0.440536
     78          1           0       -6.099356    4.371907    2.062075
     79          1           0       -3.790808    4.554508    0.512751
     80          1           0       -5.142695    4.598042   -0.578521
     81          1           0       -3.564906    3.740057   -1.998333
     82          1           0       -4.168106    2.249203   -1.333949
     83          1           0       -3.581266    0.522654    0.057086
     84          1           0       -1.714109    5.408668   -1.655071
     85          1           0       -1.661535    5.653279    0.074226
     86          1           0       -0.175412    5.542994   -0.838104
     87          1           0        1.426073    4.411360   -0.342283
     88          1           0        4.357809    5.593913   -2.299734
     89          1           0        5.834476    5.486841   -1.371804
     90          1           0        5.253112    4.094159   -2.252440
     91          1           0        3.878345    5.181736    0.322299
     92          1           0        6.516165    2.531257   -1.344940
     93          1           0        6.584207    2.052710    0.334176
     94          1           0        6.430233    0.840028   -0.914328
     95          1           0        5.267623   -0.712521   -0.646614
     96          1           0        3.396316    1.156261    5.494309
     97          1           0        2.016579    0.401964    6.256167
     98          1           0        3.227331   -0.582686    5.470284
     99          1           0        0.159884    1.350300    4.829431
    100          1           0       -0.738632    1.236058    2.456159
    101          1           0        3.113512   -0.416595    2.584873
 ---------------------------------------------------------------------

 SCF Done:  E(UPBE1PBE) =  -3628.81923584     A.U. after  235 cycles

 Alpha virt. eigenvalues --    1.16454   1.16640   1.16819   1.17266   1.18198
 Alpha virt. eigenvalues --    1.18613   1.18888   1.19154   1.19221   1.19534
 Alpha virt. eigenvalues --    1.19926   1.20259   1.20603   1.20788   1.21111

  Beta  occ. eigenvalues -- -256.31630 -30.06295 -25.90087 -25.89573 -25.87999
  Beta  occ. eigenvalues --  -19.26602 -19.25703 -19.18447 -19.15448 -14.43467
  Beta  occ. eigenvalues --  -14.43306 -14.36645 -14.36204 -14.35762 -14.35428
  Beta  occ. eigenvalues --  -14.35092 -14.35078 -10.35933 -10.33427 -10.26839
  Beta  occ. eigenvalues --  -10.26566 -10.24973 -10.24480 -10.23597 -10.23458
  Beta  occ. eigenvalues --  -10.23047 -10.22965 -10.22798 -10.22701 -10.22681
  Beta  occ. eigenvalues --  -10.22647 -10.22517 -10.22230 -10.22198 -10.21957
  Beta  occ. eigenvalues --  -10.21897 -10.21728 -10.21670 -10.21548 -10.21457
  Beta  occ. eigenvalues --  -10.21275 -10.21210 -10.21059 -10.20956 -10.20925
  Beta  occ. eigenvalues --  -10.20832 -10.20828 -10.20625 -10.20562 -10.20484
  Beta  occ. eigenvalues --  -10.20461 -10.20278 -10.20099 -10.20019 -10.19895
  Beta  occ. eigenvalues --  -10.19863 -10.19727 -10.19659 -10.19439  -3.38102
  Beta  occ. eigenvalues --   -2.15337  -2.14103  -2.09775  -1.16655  -1.16517
  Beta  occ. eigenvalues --   -1.05133  -1.04645  -1.02755  -1.00484  -0.95606
  Beta  occ. eigenvalues --   -0.94786  -0.94280  -0.93406  -0.89608  -0.89008
  Beta  occ. eigenvalues --   -0.82542  -0.82289  -0.81456  -0.80652  -0.80195
  Beta  occ. eigenvalues --   -0.79575  -0.79382  -0.79207  -0.78808  -0.77939
  Beta  occ. eigenvalues --   -0.77481  -0.75109  -0.74381  -0.73501  -0.72801
  Beta  occ. eigenvalues --   -0.72340  -0.71885  -0.71362  -0.70751  -0.69901
  Beta  occ. eigenvalues --   -0.69504  -0.68626  -0.67776  -0.65951  -0.64778
  Beta  occ. eigenvalues --   -0.63705  -0.63477  -0.63390  -0.63254  -0.60855
  Beta  occ. eigenvalues --   -0.60642  -0.60130  -0.59581  -0.57313  -0.55895
  Beta  occ. eigenvalues --   -0.55791  -0.55266  -0.54709  -0.53412  -0.53179
  Beta  occ. eigenvalues --   -0.52539  -0.51916  -0.51001  -0.50815  -0.50238
  Beta  occ. eigenvalues --   -0.49975  -0.49467  -0.49285  -0.47982  -0.47889
  Beta  occ. eigenvalues --   -0.47406  -0.47181  -0.47144  -0.46942  -0.46720
  Beta  occ. eigenvalues --   -0.46691  -0.46286  -0.45089  -0.44778  -0.44148
  Beta  occ. eigenvalues --   -0.43832  -0.43526  -0.43417  -0.43080  -0.42998
  Beta  occ. eigenvalues --   -0.42644  -0.42512  -0.42471  -0.42344  -0.42265
  Beta  occ. eigenvalues --   -0.42177  -0.42009  -0.41956  -0.41646  -0.41568
  Beta  occ. eigenvalues --   -0.41475  -0.41281  -0.41128  -0.40944  -0.40367
  Beta  occ. eigenvalues --   -0.40346  -0.40160  -0.39918  -0.39486  -0.39382
  Beta  occ. eigenvalues --   -0.39104  -0.38560  -0.38276  -0.38106  -0.38011
  Beta  occ. eigenvalues --   -0.37636  -0.37288  -0.37090  -0.36839  -0.36567
  Beta  occ. eigenvalues --   -0.36325  -0.36157  -0.35790  -0.35482  -0.35350
  Beta  occ. eigenvalues --   -0.34808  -0.34339  -0.33909  -0.33227  -0.33084
  Beta  occ. eigenvalues --   -0.32652  -0.32123  -0.31679  -0.31066  -0.30747
  Beta  occ. eigenvalues --   -0.30557  -0.30507  -0.30288  -0.28664  -0.28281
  Beta  occ. eigenvalues --   -0.28150  -0.26666  -0.26558  -0.25850  -0.24050
  Beta  occ. eigenvalues --   -0.23777  -0.23000  -0.22626  -0.22368  -0.21795
  Beta  occ. eigenvalues --   -0.19220  -0.17772  -0.17444  -0.11962
  Beta virt. eigenvalues --   -0.06569  -0.04731  -0.02961  -0.02463  -0.01370
  Beta virt. eigenvalues --    0.00568   0.01019   0.02074   0.02754   0.02971
  Beta virt. eigenvalues --    0.03400   0.03581   0.04030   0.04197   0.04676

 Mulliken charges and spin densities:
               1          2
     1  C   -0.369440   0.001269
     2  C    0.170297   0.001760
     3  N   -0.226622   0.002606
     4  C   -0.204739   0.003415
     5  C    0.031627   0.009575
     6  N    0.089825   0.024115
     7  C   -0.383432   0.001287
     8  C    0.149162   0.005506
     9  N   -0.212161  -0.000521
    10  C   -0.178745   0.000487
    11  C    0.011840  -0.008596
    12  N    0.038352   0.048651
    13  Fe  -0.331498   2.364564
    14  C   -0.605749  -0.097890
    15  C   -0.519172   0.061443
    16  C   -0.520417  -0.091407
    17  C   -0.519500   0.043072
    18  N   -0.022760  -0.022504
    19  C    0.264066   0.047145
    20  C    0.066426  -0.056567
    21  C   -0.052042   0.048405
    22  C    0.177708  -0.081778
    23  C   -0.412033  -0.003391
    24  C   -0.445463   0.005919
    25  C   -0.117972  -0.002697
    26  C    0.245884  -0.000134
    27  O   -0.398734  -0.000217
    28  O   -0.318294   0.000042
    29  N    0.001384  -0.017840
    30  C    0.242176  -0.102555
    31  C   -0.048663   0.157346
    32  C   -0.026854  -0.208147
    33  C    0.197599   0.057786
    34  C   -0.360482  -0.009333
    35  C   -0.274596   1.022526
    36  C   -0.335096  -0.067565
    37  N   -0.014272  -0.002744
    38  C    0.339743   0.019169
    39  C   -0.135815   0.048420
    40  C    0.031475  -0.101848
    41  C    0.173193  -0.057044
    42  C   -0.361037  -0.001136
    43  C   -0.263087   1.021982
    44  C   -0.331788  -0.065985
    45  N   -0.059297  -0.038722
    46  C    0.211401  -0.069154
    47  C   -0.031341   0.057191
    48  C   -0.154551  -0.069137
    49  C    0.306425   0.051149
    50  C   -0.378448  -0.004138
    51  C   -0.221960   0.006137
    52  C   -0.231950  -0.002003
    53  C    0.327927   0.000154
    54  O   -0.335259  -0.000007
    55  O   -0.373198  -0.000158
    56  H    0.127654   0.000186
    57  H    0.142728   0.000062
    58  H    0.145334   0.000222
    59  H    0.178056   0.001983
    60  H    0.222937   0.003379
    61  H    0.147955   0.001365
    62  H    0.127644   0.038282
    63  H    0.117034   0.024035
    64  H    0.133982   0.000770
    65  H    0.135375  -0.049396
    66  H    0.120287   0.003672
    67  H    0.134954   0.006062
    68  H    0.117222   0.000071
    69  H    0.105825  -0.003074
    70  H    0.140891   0.001644
    71  H    0.137318   0.001156
    72  H    0.127882   0.000247
    73  H    0.137472   0.000360
    74  H    0.121241   0.000059
    75  H    0.156170  -0.000856
    76  H    0.127452  -0.000767
    77  H    0.342402  -0.000051
    78  H    0.344424  -0.000030
    79  H    0.116654  -0.000009
    80  H    0.127778  -0.000655
    81  H    0.122813  -0.001783
    82  H    0.155785  -0.000672
    83  H    0.174488   0.004039
    84  H    0.126777   0.001347
    85  H    0.128769   0.001903
    86  H    0.126898   0.000270
    87  H    0.092482   0.003630
    88  H    0.124537   0.039261
    89  H    0.119457   0.025271
    90  H    0.135401   0.000916
    91  H    0.132958  -0.047367
    92  H    0.116850   0.000646
    93  H    0.134277   0.002326
    94  H    0.123742   0.000049
    95  H    0.098221   0.008547
    96  H    0.147019   0.000026
    97  H    0.119801  -0.000022
    98  H    0.150038  -0.000005
    99  H    0.219469   0.002739
   100  H    0.174393   0.000900
   101  H    0.139108   0.001359
 Sum of Mulliken charges =  -0.00000   4.00000

 Dipole moment (field-independent basis, Debye):
    X=             -1.2344    Y=              4.8772    Z=              2.9091  Tot=              5.8116
 Quadrupole moment (field-independent basis, Debye-Ang):
   XX=           -326.4770   YY=           -288.1818   ZZ=           -284.9604
   XY=            -22.0842   XZ=            -15.2748   YZ=              2.9828

 Summary of Natural Population Analysis:

                                       Natural Population
                Natural  -----------------------------------------------
    Atom  No    Charge         Core      Valence    Rydberg      Total
 -----------------------------------------------------------------------
      C    1   -0.31797      0.99969     2.31509    0.00318     3.31797
      C    2    0.04683      0.99949     1.94427    0.00940     2.95317
      N    3   -0.24106      0.99970     2.73143    0.00992     3.74106
      C    4   -0.02953      0.99939     2.02085    0.00929     3.02953
      C    5    0.11008      0.99965     1.87961    0.01066     2.88992
      N    6   -0.15425      0.99971     2.63229    0.02225     3.65425
      C    7   -0.31802      0.99969     2.31523    0.00310     3.31802
      C    8    0.04593      0.99951     1.94514    0.00942     2.95407
      N    9   -0.24173      0.99968     2.73205    0.00999     3.74173
      C   10   -0.02852      0.99941     2.01947    0.00964     3.02852
      C   11    0.09173      0.99966     1.89724    0.01137     2.90827
      N   12   -0.15595      0.99972     2.63237    0.02386     3.65595
     Fe   13    1.26757      8.99459     2.71264    0.02520    11.73243
      C   14   -0.18165      0.99948     2.17314    0.00903     3.18165
      C   15   -0.09263      0.99948     2.08469    0.00846     3.09263
      C   16   -0.17328      0.99948     2.16523    0.00857     3.17328
      C   17   -0.10328      0.99948     2.09550    0.00830     3.10328
      N   18   -0.19765      0.99971     2.67719    0.02075     3.69765
      C   19    0.10254      0.99951     1.88801    0.00995     2.89746
      C   20   -0.05452      0.99937     2.04533    0.00982     3.05452
      C   21    0.01396      0.99937     1.97797    0.00870     2.98604
      C   22    0.02233      0.99950     1.96737    0.01080     2.97767
      C   23   -0.32025      0.99970     2.31702    0.00353     3.32025
      C   24   -0.20963      0.99967     2.20300    0.00695     3.20963
      C   25   -0.24720      0.99962     2.23903    0.00855     3.24720
      C   26    0.38081      0.99975     1.60097    0.01847     2.61919
      O   27   -0.31550      0.99989     3.30346    0.01215     4.31550
      O   28   -0.32044      0.99980     3.30734    0.01330     4.32044
      N   29   -0.18983      0.99968     2.66777    0.02238     3.68983
      C   30    0.01680      0.99954     1.97234    0.01133     2.98320
      C   31    0.06140      0.99941     1.93069    0.00850     2.93860
      C   32   -0.13443      0.99940     2.12535    0.00968     3.13443
      C   33    0.11449      0.99951     1.87547    0.01053     2.88551
      C   34   -0.32092      0.99970     2.31765    0.00357     3.32092
      C   35    0.40899      0.99974     1.58642    0.00485     2.59101
      C   36   -0.35750      0.99972     2.35423    0.00356     3.35750
      N   37   -0.18722      0.99970     2.66688    0.02065     3.68722
      C   38    0.08775      0.99951     1.90230    0.01044     2.91225
      C   39   -0.00015      0.99941     1.99212    0.00861     3.00015
      C   40   -0.08260      0.99941     2.07356    0.00963     3.08260
      C   41    0.04649      0.99952     1.94346    0.01052     2.95351
      C   42   -0.31551      0.99970     2.31213    0.00368     3.31551
      C   43    0.41939      0.99973     1.57609    0.00478     2.58061
      C   44   -0.35780      0.99972     2.35459    0.00348     3.35780
      N   45   -0.20690      0.99970     2.68588    0.02132     3.70690
      C   46    0.01800      0.99948     1.97089    0.01164     2.98200
      C   47    0.01516      0.99941     1.97675    0.00867     2.98484
      C   48   -0.06485      0.99941     2.05569    0.00975     3.06485
      C   49    0.10035      0.99951     1.88968    0.01047     2.89965
      C   50   -0.31929      0.99970     2.31588    0.00371     3.31929
      C   51   -0.20851      0.99967     2.20114    0.00770     3.20851
      C   52   -0.26302      0.99963     2.25482    0.00858     3.26302
      C   53    0.38584      0.99975     1.59762    0.01679     2.61416
      O   54   -0.33085      0.99981     3.31622    0.01481     4.33085
      O   55   -0.29247      0.99989     3.28090    0.01168     4.29247
      H   56    0.10733      0.00000     0.39194    0.00074     0.39267
      H   57    0.11692      0.00000     0.38260    0.00047     0.38308
      H   58    0.11110      0.00000     0.38815    0.00075     0.38890
      H   59    0.11356      0.00000     0.38563    0.00081     0.38644
      H   60    0.20520      0.00000     0.29400    0.00080     0.29480
      H   61    0.11471      0.00000     0.38451    0.00077     0.38529
      H   62    0.12812      0.00000     0.37134    0.00053     0.37188
      H   63    0.11742      0.00000     0.38190    0.00068     0.38258
      H   64    0.10930      0.00000     0.39001    0.00069     0.39070
      H   65    0.07898      0.00000     0.42008    0.00094     0.42102
      H   66    0.11007      0.00000     0.38909    0.00083     0.38993
      H   67    0.11240      0.00000     0.38684    0.00075     0.38760
      H   68    0.10673      0.00000     0.39263    0.00064     0.39327
      H   69    0.10511      0.00000     0.39359    0.00129     0.39489
      H   70    0.11030      0.00000     0.38895    0.00075     0.38970
      H   71    0.11017      0.00000     0.38910    0.00072     0.38983
      H   72    0.10799      0.00000     0.39129    0.00073     0.39201
      H   73    0.12260      0.00000     0.37670    0.00069     0.37740
      H   74    0.11634      0.00000     0.38301    0.00066     0.38366
      H   75    0.11310      0.00000     0.38584    0.00106     0.38690
      H   76    0.10810      0.00000     0.39109    0.00081     0.39190
      H   77    0.25542      0.00000     0.24293    0.00165     0.24458
      H   78    0.25253      0.00000     0.24632    0.00115     0.24747
      H   79    0.11183      0.00000     0.38732    0.00085     0.38817
      H   80    0.11521      0.00000     0.38402    0.00077     0.38479
      H   81    0.10612      0.00000     0.39313    0.00076     0.39388
      H   82    0.12378      0.00000     0.37538    0.00084     0.37622
      H   83    0.11935      0.00000     0.37956    0.00109     0.38065
      H   84    0.10840      0.00000     0.39072    0.00088     0.39160
      H   85    0.10754      0.00000     0.39162    0.00084     0.39246
      H   86    0.10944      0.00000     0.38992    0.00064     0.39056
      H   87    0.10644      0.00000     0.39226    0.00131     0.39356
      H   88    0.12773      0.00000     0.37174    0.00053     0.37227
      H   89    0.11893      0.00000     0.38043    0.00064     0.38107
      H   90    0.10984      0.00000     0.38949    0.00068     0.39016
      H   91    0.07896      0.00000     0.42019    0.00085     0.42104
      H   92    0.10723      0.00000     0.39193    0.00084     0.39277
      H   93    0.10958      0.00000     0.38959    0.00083     0.39042
      H   94    0.10672      0.00000     0.39268    0.00060     0.39328
      H   95    0.10943      0.00000     0.38921    0.00136     0.39057
      H   96    0.11293      0.00000     0.38639    0.00068     0.38707
      H   97    0.10737      0.00000     0.39198    0.00065     0.39263
      H   98    0.11727      0.00000     0.38220    0.00053     0.38273
      H   99    0.20350      0.00000     0.29567    0.00083     0.29650
      H  100    0.11462      0.00000     0.38450    0.00088     0.38538
      H  101    0.11273      0.00000     0.38655    0.00072     0.38727
 =======================================================================
   * Total *    2.00000     62.97309   140.40352    0.62339   204.00000

 Normal termination of Gaussian 16 at Tue Feb  7 08:15:06 2023.
