 Gaussian 16, Revision A.03,
 Gaussian 16:  AM64L-G16RevA.03 25-Dec-2016

 ---------------------------------------------------------------------
 # polar def2tzvp empiricaldispersion=gd3bj int=grid=ultrafine pbe1pbe
 ---------------------------------------------------------------------

 ---------
 1hrc_II_S
 ---------
 Symbolic Z-matrix:
 Charge =  0 Multiplicity = 1

                         Standard orientation:
 ---------------------------------------------------------------------
 Center     Atomic      Atomic             Coordinates (Angstroms)
 Number     Number       Type             X           Y           Z
 ---------------------------------------------------------------------
      1          6           0        2.642834   -1.895760    4.972058
      2          6           0        1.853316   -1.355108    3.810748
      3          7           0        0.479928   -1.217990    3.904029
      4          6           0        2.203621   -0.951947    2.609410
      5          6           0        0.046710   -0.771455    2.687987
      6          7           0        1.075740   -0.582515    1.906615
      7          6           0       -0.857788    2.929897   -2.547235
      8          6           0        0.502389    2.157412   -2.526621
      9         16           0        0.324986    0.392981   -2.272802
     10          6           0        1.545230   -0.284456   -3.421113
     11         26           0        0.804155   -0.076535   -0.048002
     12          6           0       -2.674692    0.025225   -0.125072
     13          6           0        0.712643   -3.391592   -0.310979
     14          6           0        4.141500   -0.012262   -0.745658
     15          6           0        0.925975    3.118551    1.016369
     16          7           0       -0.714489   -1.390555   -0.140275
     17          6           0       -2.069221   -1.205432   -0.227295
     18          6           0       -2.673559   -2.498337   -0.541725
     19          6           0       -1.755435   -3.408609   -0.606944
     20          6           0       -0.483787   -2.752762   -0.364662
     21          6           0       -1.633357   -4.956017   -0.859426
     22          6           0       -4.219168   -2.657461   -0.723425
     23          6           0       -4.796593   -3.249718    0.628269
     24          6           0       -6.258763   -3.567668    0.615171
     25          8           0       -6.821763   -3.562758    1.763040
     26          8           0       -6.807076   -3.811403   -0.488724
     27          7           0        2.140777   -1.437147   -0.445604
     28          6           0        1.947435   -2.811263   -0.460850
     29          6           0        3.181204   -3.487251   -0.681681
     30          6           0        4.134179   -2.565393   -0.824466
     31          6           0        3.514456   -1.239692   -0.644053
     32          6           0        3.355679   -5.040939   -0.764406
     33          6           0        5.630678   -2.744187   -1.097873
     34          6           0        6.113936   -3.114881   -2.500953
     35          7           0        2.274771    1.324056    0.081992
     36          6           0        3.614784    1.168685   -0.247959
     37          6           0        4.317795    2.363111    0.090016
     38          6           0        3.428847    3.273978    0.571328
     39          6           0        2.139655    2.593163    0.614604
     40          6           0        5.842977    2.587277   -0.096677
     41          6           0        3.702188    4.667371    1.173216
     42          6           0        4.675366    5.609660    0.431142
     43          7           0       -0.559494    1.292989    0.391492
     44          6           0       -0.318610    2.570039    0.819674
     45          6           0       -1.598622    3.248593    0.967952
     46          6           0       -2.553423    2.413805    0.651602
     47          6           0       -1.956225    1.155040    0.252229
     48          6           0       -1.711328    4.717842    1.449936
     49          6           0       -4.093205    2.663530    0.657149
     50          6           0       -4.469333    3.322268   -0.678557
     51          6           0       -5.899871    3.724771   -0.870937
     52          8           0       -6.776375    3.471110   -0.043974
     53          8           0       -6.055118    4.300452   -1.972156
     54          1           0        2.358214   -2.910834    5.155133
     55          1           0        3.687323   -1.853862    4.743614
     56          1           0        2.444374   -1.307029    5.843213
     57          1           0       -0.085953   -1.408772    4.706140
     58          1           0       -0.974924   -0.603020    2.418184
     59          1           0        3.205633   -0.916071    2.235799
     60          1           0       -1.114263    3.227152   -1.551865
     61          1           0       -0.765664    3.797881   -3.166119
     62          1           0       -1.623777    2.293025   -2.937820
     63          1           0        1.000977    2.319497   -3.459380
     64          1           0        1.109176    2.555880   -1.740534
     65          1           0        1.773324   -1.292803   -3.145232
     66          1           0        1.148013   -0.267625   -4.414509
     67          1           0        2.436769    0.306000   -3.383428
     68          1           0        3.117097   -5.477578    0.182866
     69          1           0        2.700513   -5.434039   -1.513491
     70          1           0        4.368670   -5.273031   -1.019128
     71          1           0        0.691168   -4.446854   -0.135302
     72          1           0       -1.871789   -5.484079    0.040130
     73          1           0       -2.312582   -5.245733   -1.633776
     74          1           0       -0.632638   -5.191087   -1.156418
     75          1           0       -3.718998    0.115388   -0.340005
     76          1           0       -1.030678    4.880919    2.259269
     77          1           0       -1.470229    5.377509    0.642711
     78          1           0       -2.710863    4.909101    1.780467
     79          1           0        0.959037    4.053002    1.536569
     80          1           0        6.377479    1.746717    0.294049
     81          1           0        6.062529    2.696784   -1.138168
     82          1           0        6.139870    3.472795    0.425447
     83          1           0       -4.260689   -4.147251    0.856614
     84          1           0       -4.614912   -2.541032    1.409074
     85          1           0       -4.423353   -3.328673   -1.531313
     86          1           0       -4.662318   -1.703894   -0.921484
     87          1           0       -7.079462   -4.706893   -0.702037
     88          1           0       -5.432422    4.146315   -2.686362
     89          1           0       -3.865355    4.198140   -0.792395
     90          1           0       -4.213496    2.640504   -1.462549
     91          1           0       -4.610678    1.732675    0.760258
     92          1           0       -4.351769    3.313388    1.466921
     93          1           0        6.263186   -4.172837   -2.558857
     94          1           0        5.380045   -2.818283   -3.220907
     95          1           0        7.036637   -2.612839   -2.704611
     96          1           0        6.338494   -2.609674   -0.306796
     97          1           0        5.674705    5.240385    0.530430
     98          1           0        4.411594    5.650706   -0.605024
     99          1           0        4.613972    6.590664    0.853945
    100          1           0        3.229173    4.973860    2.082733
    101          1           0        5.090544    0.028471   -1.238159
 ---------------------------------------------------------------------

 SCF Done:  E(RPBE1PBE) =  -3880.49711914     A.U. after   41 cycles

 The electronic state is 1-A.
 Alpha  occ. eigenvalues -- -256.31078 -89.02188 -30.08063 -25.90896 -25.90545
 Alpha  occ. eigenvalues --  -25.90411 -19.26527 -19.26313 -19.18117 -19.17920
 Alpha  occ. eigenvalues --  -14.44265 -14.39053 -14.37166 -14.37061 -14.36914
 Alpha  occ. eigenvalues --  -14.36508 -10.35583 -10.34759 -10.28088 -10.25755
 Alpha  occ. eigenvalues --  -10.24761 -10.24556 -10.24519 -10.24432 -10.24402
 Alpha  occ. eigenvalues --  -10.24117 -10.24003 -10.23754 -10.23695 -10.23510
 Alpha  occ. eigenvalues --  -10.23510 -10.23061 -10.23044 -10.22995 -10.22965
 Alpha  occ. eigenvalues --  -10.22929 -10.22805 -10.22784 -10.22413 -10.22014
 Alpha  occ. eigenvalues --  -10.21919 -10.21919 -10.21806 -10.21688 -10.21657
 Alpha  occ. eigenvalues --  -10.21442 -10.21428 -10.21423 -10.21343 -10.21250
 Alpha  occ. eigenvalues --  -10.21107 -10.21090 -10.21084 -10.21055 -10.21010
 Alpha  occ. eigenvalues --  -10.20577 -10.20421  -7.99982  -5.93644  -5.93336
 Alpha  occ. eigenvalues --   -5.92815  -3.42496  -2.18516  -2.17837  -2.17649
 Alpha  occ. eigenvalues --   -1.17133  -1.16578  -1.05780  -1.03705  -1.01559
 Alpha  occ. eigenvalues --   -0.97340  -0.96411  -0.96073  -0.95109  -0.90921
 Alpha  occ. eigenvalues --   -0.83673  -0.83424  -0.83050  -0.82762  -0.81310
 Alpha  occ. eigenvalues --   -0.81159  -0.80867  -0.80553  -0.80227  -0.78857
 Alpha  occ. eigenvalues --   -0.78298  -0.76466  -0.76124  -0.75811  -0.75416
 Alpha  occ. eigenvalues --   -0.73791  -0.73013  -0.72638  -0.71560  -0.71000
 Alpha  occ. eigenvalues --   -0.69759  -0.69636  -0.69028  -0.67520  -0.66637
 Alpha  occ. eigenvalues --   -0.66442  -0.65410  -0.64957  -0.64570  -0.62356
 Alpha  occ. eigenvalues --   -0.61961  -0.61669  -0.60296  -0.59066  -0.57479
 Alpha  occ. eigenvalues --   -0.56651  -0.55474  -0.54405  -0.54306  -0.53691
 Alpha  occ. eigenvalues --   -0.53023  -0.52017  -0.51973  -0.51931  -0.51259
 Alpha  occ. eigenvalues --   -0.50889  -0.50370  -0.48784  -0.48631  -0.48418
 Alpha  occ. eigenvalues --   -0.48247  -0.48152  -0.48035  -0.47714  -0.47399
 Alpha  occ. eigenvalues --   -0.46130  -0.45802  -0.45228  -0.45061  -0.44890
 Alpha  occ. eigenvalues --   -0.44709  -0.44581  -0.44335  -0.44305  -0.44049
 Alpha  occ. eigenvalues --   -0.43599  -0.43520  -0.43414  -0.43239  -0.43067
 Alpha  occ. eigenvalues --   -0.43035  -0.42910  -0.42780  -0.42573  -0.42234
 Alpha  occ. eigenvalues --   -0.42123  -0.41579  -0.41245  -0.40951  -0.40816
 Alpha  occ. eigenvalues --   -0.40606  -0.40345  -0.40078  -0.39797  -0.39618
 Alpha  occ. eigenvalues --   -0.39320  -0.39116  -0.38853  -0.38719  -0.38476
 Alpha  occ. eigenvalues --   -0.38120  -0.37764  -0.37706  -0.37473  -0.37337
 Alpha  occ. eigenvalues --   -0.37008  -0.36826  -0.36539  -0.36178  -0.35603
 Alpha  occ. eigenvalues --   -0.35526  -0.35075  -0.34524  -0.34243  -0.33610
 Alpha  occ. eigenvalues --   -0.33530  -0.33056  -0.32806  -0.32778  -0.32036
 Alpha  occ. eigenvalues --   -0.31732  -0.31536  -0.30356  -0.29362  -0.28102
 Alpha  occ. eigenvalues --   -0.27947  -0.27736  -0.27247  -0.26332  -0.25786
 Alpha  occ. eigenvalues --   -0.25148  -0.24669  -0.24321  -0.23640  -0.20109
 Alpha  occ. eigenvalues --   -0.19006  -0.18756  -0.18529  -0.18510  -0.13671
 Alpha virt. eigenvalues --   -0.11208  -0.06564  -0.06175  -0.02053  -0.00518
 Alpha virt. eigenvalues --    0.00428   0.01801   0.02018   0.02348   0.02604
 Alpha virt. eigenvalues --    0.03098   0.03537   0.04160   0.04532   0.04708

 Mulliken charges:
               1
     1  C   -0.386545
     2  C    0.198372
     3  N   -0.235958
     4  C   -0.228954
     5  C    0.013139
     6  N    0.052890
     7  C   -0.349919
     8  C   -0.154910
     9  S    0.047908
    10  C   -0.398981
    11  Fe  -0.462795
    12  C   -0.460196
    13  C   -0.495305
    14  C   -0.541670
    15  C   -0.443062
    16  N   -0.002771
    17  C    0.210401
    18  C    0.036193
    19  C   -0.082061
    20  C    0.235947
    21  C   -0.397088
    22  C   -0.313920
    23  C   -0.199692
    24  C    0.286503
    25  O   -0.359488
    26  O   -0.351676
    27  N    0.044301
    28  C    0.243039
    29  C   -0.054688
    30  C    0.112514
    31  C    0.139589
    32  C   -0.417782
    33  C   -0.376360
    34  C   -0.325879
    35  N   -0.003006
    36  C    0.248298
    37  C   -0.082712
    38  C    0.052216
    39  C    0.156676
    40  C   -0.368750
    41  C   -0.295783
    42  C   -0.307607
    43  N    0.084659
    44  C    0.218172
    45  C   -0.105631
    46  C    0.120739
    47  C    0.139996
    48  C   -0.418352
    49  C   -0.303603
    50  C   -0.334753
    51  C    0.329328
    52  O   -0.343337
    53  O   -0.299382
    54  H    0.139156
    55  H    0.143078
    56  H    0.134746
    57  H    0.234202
    58  H    0.175158
    59  H    0.141828
    60  H    0.132085
    61  H    0.119082
    62  H    0.106169
    63  H    0.128351
    64  H    0.136214
    65  H    0.161531
    66  H    0.151639
    67  H    0.144210
    68  H    0.131351
    69  H    0.136797
    70  H    0.137629
    71  H    0.143346
    72  H    0.135487
    73  H    0.130594
    74  H    0.135256
    75  H    0.113566
    76  H    0.137063
    77  H    0.141324
    78  H    0.133453
    79  H    0.089736
    80  H    0.136236
    81  H    0.129648
    82  H    0.112003
    83  H    0.128151
    84  H    0.138028
    85  H    0.107876
    86  H    0.121964
    87  H    0.356048
    88  H    0.347737
    89  H    0.149995
    90  H    0.138061
    91  H    0.127280
    92  H    0.132124
    93  H    0.127846
    94  H    0.132266
    95  H    0.130060
    96  H    0.142951
    97  H    0.116583
    98  H    0.136124
    99  H    0.126349
   100  H    0.143798
   101  H    0.137560
 Sum of Mulliken charges =  -0.00000

 Dipole moment (field-independent basis, Debye):
    X=              5.3162    Y=             -2.3949    Z=             -1.9427  Tot=              6.1459
 Quadrupole moment (field-independent basis, Debye-Ang):
   XX=           -377.7062   YY=           -296.2959   ZZ=           -292.9132
   XY=             18.9850   XZ=             29.5705   YZ=             -4.5258

  Exact polarizability: 909.733 -37.261 983.746 -49.875 117.462 468.366
 Approx polarizability:2116.902********6331.097-538.1121637.9171173.591

 Normal termination of Gaussian 16 at Sun Feb  5 23:30:32 2023.
