 Gaussian 16, Revision A.03,
 Gaussian 16:  ES64L-G16RevA.03 25-Dec-2016

 ----------------------------------------------------------------------
 # PBE1PBE/def2TZVP empiricaldispersion=GD3BJ int=(grid=ultrafine) geom
 =check pop=nbo
 ----------------------------------------------------------------------

 ---------
 1jdl_II_Q
 ---------
 Structure from the checkpoint file:  "1jdl_II_Q.chk"
 Charge =  0 Multiplicity = 5

                         Standard orientation:
 ---------------------------------------------------------------------
 Center     Atomic      Atomic             Coordinates (Angstroms)
 Number     Number       Type             X           Y           Z
 ---------------------------------------------------------------------
      1          6           0        2.628197   -1.653437    4.968101
      2          6           0        1.748235   -1.176809    3.861118
      3          7           0        0.372586   -1.186335    3.945932
      4          6           0        2.046149   -0.743884    2.614204
      5          6           0       -0.138560   -0.788081    2.796042
      6          7           0        0.855806   -0.515189    1.969990
      7          6           0       -0.739312    3.003911   -2.731769
      8          6           0        0.569495    2.199125   -2.627158
      9         16           0        0.513857    0.426977   -2.321855
     10          6           0        1.846977   -0.128049   -3.358084
     11          6           0       -2.575871   -0.206679   -0.122090
     12          6           0        0.982946   -3.406362   -0.720520
     13          6           0        4.226628    0.134754   -0.180032
     14          6           0        0.698568    3.174317    0.948896
     15          6           0       -1.883354   -1.388270   -0.393026
     16          6           0       -2.510979   -2.634633   -0.763470
     17          6           0       -1.496928   -3.524758   -0.934836
     18          6           0       -0.265109   -2.825284   -0.657178
     19          6           0       -1.611219   -4.971493   -1.390583
     20          6           0       -4.022390   -2.900731   -0.779420
     21          6           0       -4.413907   -3.359814    0.624465
     22          6           0       -5.920021   -3.549819    0.827078
     23          8           0       -6.694327   -3.439326   -0.144123
     24          8           0       -6.328114   -3.822468    1.974742
     25          6           0        2.177199   -2.711111   -0.594377
     26          6           0        3.486565   -3.299901   -0.725974
     27          6           0        4.357073   -2.248457   -0.799642
     28          6           0        3.630986   -1.086835   -0.453372
     29          6           0        3.777097   -4.794450   -0.744555
     30          6           0        5.635529   -2.155796   -1.388016
     31          6           0        6.403027   -3.220598   -2.152412
     32          6           0        3.549816    1.279575    0.125707
     33          6           0        4.168260    2.558566    0.405614
     34          6           0        3.155792    3.428939    0.552724
     35          6           0        1.936804    2.647933    0.617000
     36          6           0        5.667786    2.836749    0.528651
     37          6           0        3.160709    4.839283    0.470760
     38          6           0        4.329621    5.815657    0.394968
     39          6           0       -0.499300    2.505772    0.834699
     40          6           0       -1.788819    3.127881    1.022625
     41          6           0       -2.726000    2.206661    0.646958
     42          6           0       -1.979690    1.007552    0.251152
     43          6           0       -2.062936    4.563454    1.479455
     44          6           0       -4.237221    2.435493    0.549054
     45          6           0       -4.522676    2.884367   -0.888457
     46          6           0       -5.962039    3.292759   -1.128965
     47          8           0       -6.264316    3.711526   -2.267450
     48          8           0       -6.793143    3.198227   -0.199038
     49          7           0       -0.504776   -1.504065   -0.347971
     50          7           0        2.263013   -1.346479   -0.413305
     51          7           0        2.172036    1.345818    0.236454
     52          7           0       -0.609798    1.205371    0.371142
     53         26           0        0.839391   -0.064255   -0.077962
     54          1           0       -5.804586   -3.577348    2.741184
     55          1           0       -3.924645   -4.289841    0.825894
     56          1           0       -4.066100   -2.632811    1.328309
     57          1           0       -4.548121   -2.002941   -1.029380
     58          1           0       -4.250264   -3.667102   -1.490509
     59          1           0       -4.537458    3.197891    1.237173
     60          1           0       -4.759700    1.525670    0.759141
     61          1           0       -3.889817    3.716179   -1.117540
     62          1           0       -4.281859    2.079274   -1.550826
     63          1           0       -6.622239    3.626692    0.642870
     64          1           0       -3.642398   -0.228639   -0.205385
     65          1           0        0.671568    4.176671    1.322336
     66          1           0        5.295065    0.183535   -0.211053
     67          1           0        1.034461   -4.463553   -0.877342
     68          1           0       -1.376548    5.228193    0.997902
     69          1           0       -3.064634    4.835344    1.219496
     70          1           0       -1.939175    4.629973    2.540190
     71          1           0       -0.680933   -5.472827   -1.222858
     72          1           0       -2.384793   -5.460133   -0.835862
     73          1           0       -1.848328   -4.999194   -2.433613
     74          1           0        4.725511   -4.979168   -0.284893
     75          1           0        3.012285   -5.313201   -0.205241
     76          1           0        3.797660   -5.141240   -1.756590
     77          1           0        5.822972    3.878461    0.717473
     78          1           0        6.071701    2.263709    1.336968
     79          1           0        6.157329    2.562616   -0.382447
     80          1           0        5.334741    5.448999    0.409008
     81          1           0        4.144695    6.867410    0.327746
     82          1           0        2.192087    5.293772    0.460203
     83          1           0        7.433211   -3.065857   -2.396700
     84          1           0        5.913501   -4.125429   -2.446597
     85          1           0        6.129144   -1.212384   -1.282102
     86          1           0        2.781570    0.135138   -2.908453
     87          1           0        1.792246   -1.190655   -3.471106
     88          1           0        1.769671    0.337235   -4.318519
     89          1           0        1.104795    2.345717   -3.541961
     90          1           0       -0.575583    3.874710   -3.331603
     91          1           0       -1.496102    2.396978   -3.183213
     92          1           0       -1.055617    3.299214   -1.753174
     93          1           0        1.148191    2.637383   -1.841066
     94          1           0        3.288583   -0.865035    5.263418
     95          1           0        2.025308   -1.945079    5.802589
     96          1           0        3.201652   -2.491951    4.632027
     97          1           0        3.025852   -0.605726    2.206780
     98          1           0       -1.181018   -0.701033    2.571091
     99          1           0       -0.155405   -1.453126    4.752188
 ---------------------------------------------------------------------

 SCF Done:  E(UPBE1PBE) =  -3879.36097435     A.U. after   57 cycles

 Alpha virt. eigenvalues --    1.00931   1.01199   1.01635   1.01942   1.02276
 Alpha virt. eigenvalues --    1.02534   1.02628   1.02898   1.03299   1.03469
 Alpha virt. eigenvalues --    1.03711   1.03976   1.04175   1.04313   1.04817

  Beta  occ. eigenvalues -- -256.40692 -89.02872 -30.15392 -25.98787 -25.98640
  Beta  occ. eigenvalues --  -25.97590 -19.27742 -19.26156 -19.18036 -19.17414
  Beta  occ. eigenvalues --  -14.46280 -14.39376 -14.39013 -14.38829 -14.38157
  Beta  occ. eigenvalues --  -14.37563 -10.35672 -10.34869 -10.29462 -10.27264
  Beta  occ. eigenvalues --  -10.25507 -10.25120 -10.25056 -10.25040 -10.24982
  Beta  occ. eigenvalues --  -10.24931 -10.24713 -10.24634 -10.24595 -10.24553
  Beta  occ. eigenvalues --  -10.24334 -10.24223 -10.23981 -10.23920 -10.23845
  Beta  occ. eigenvalues --  -10.23552 -10.23522 -10.23507 -10.22981 -10.22888
  Beta  occ. eigenvalues --  -10.22720 -10.22653 -10.22565 -10.22362 -10.22251
  Beta  occ. eigenvalues --  -10.22075 -10.21951 -10.21926 -10.21682 -10.21674
  Beta  occ. eigenvalues --  -10.21360 -10.21255 -10.20957 -10.20703 -10.20678
  Beta  occ. eigenvalues --  -10.20651 -10.20395  -8.00919  -5.94569  -5.94249
  Beta  occ. eigenvalues --   -5.93692  -3.46090  -2.22340  -2.21981  -2.18204
  Beta  occ. eigenvalues --   -1.18081  -1.16809  -1.08012  -1.03217  -1.02271
  Beta  occ. eigenvalues --   -0.98758  -0.97668  -0.97334  -0.96384  -0.92203
  Beta  occ. eigenvalues --   -0.84803  -0.84398  -0.84197  -0.83728  -0.83301
  Beta  occ. eigenvalues --   -0.82822  -0.82133  -0.81308  -0.80653  -0.79427
  Beta  occ. eigenvalues --   -0.78838  -0.77374  -0.76392  -0.75337  -0.74859
  Beta  occ. eigenvalues --   -0.73952  -0.73271  -0.72875  -0.72222  -0.70832
  Beta  occ. eigenvalues --   -0.70450  -0.69880  -0.69490  -0.68197  -0.67394
  Beta  occ. eigenvalues --   -0.66868  -0.66276  -0.65510  -0.65302  -0.63696
  Beta  occ. eigenvalues --   -0.63033  -0.61772  -0.61045  -0.59349  -0.58098
  Beta  occ. eigenvalues --   -0.57889  -0.56314  -0.55468  -0.54835  -0.54779
  Beta  occ. eigenvalues --   -0.54065  -0.53773  -0.52735  -0.52602  -0.51888
  Beta  occ. eigenvalues --   -0.51269  -0.50786  -0.49745  -0.49482  -0.49403
  Beta  occ. eigenvalues --   -0.48993  -0.48826  -0.48590  -0.47811  -0.47579
  Beta  occ. eigenvalues --   -0.46830  -0.46774  -0.46413  -0.46089  -0.45819
  Beta  occ. eigenvalues --   -0.45362  -0.45257  -0.44976  -0.44895  -0.44722
  Beta  occ. eigenvalues --   -0.44622  -0.44540  -0.44325  -0.44021  -0.43954
  Beta  occ. eigenvalues --   -0.43704  -0.43544  -0.43375  -0.43006  -0.42488
  Beta  occ. eigenvalues --   -0.42374  -0.41923  -0.41761  -0.41281  -0.41036
  Beta  occ. eigenvalues --   -0.40779  -0.40701  -0.40356  -0.40223  -0.40119
  Beta  occ. eigenvalues --   -0.39692  -0.39470  -0.39355  -0.39225  -0.38885
  Beta  occ. eigenvalues --   -0.38696  -0.38561  -0.38327  -0.37948  -0.37744
  Beta  occ. eigenvalues --   -0.37589  -0.37032  -0.36399  -0.36282  -0.36068
  Beta  occ. eigenvalues --   -0.35907  -0.35362  -0.35159  -0.34810  -0.33893
  Beta  occ. eigenvalues --   -0.33492  -0.33461  -0.33172  -0.32829  -0.32413
  Beta  occ. eigenvalues --   -0.32261  -0.31765  -0.30772  -0.29758  -0.28291
  Beta  occ. eigenvalues --   -0.27819  -0.27518  -0.26960  -0.26406  -0.26186
  Beta  occ. eigenvalues --   -0.25810  -0.24413  -0.24055  -0.22104  -0.20572
  Beta  occ. eigenvalues --   -0.18893  -0.18353
  Beta virt. eigenvalues --   -0.09638  -0.09045  -0.05994  -0.04915  -0.03502
  Beta virt. eigenvalues --   -0.01409  -0.01267  -0.00575  -0.00289   0.00986
  Beta virt. eigenvalues --    0.01044   0.01409   0.01587   0.01643   0.01799

 Mulliken charges and spin densities:
               1          2
     1  C   -0.354368   0.001093
     2  C    0.123723   0.002594
     3  N   -0.213329   0.002645
     4  C   -0.171573   0.002357
     5  C    0.026881   0.005764
     6  N   -0.036737   0.055172
     7  C   -0.360019  -0.001412
     8  C   -0.161794   0.004002
     9  S    0.032045   0.098499
    10  C   -0.382351   0.002024
    11  C   -0.548690  -0.012679
    12  C   -0.520488   0.188739
    13  C   -0.497599   0.027167
    14  C   -0.444628   0.108192
    15  C    0.273494   0.071555
    16  C   -0.004104  -0.031014
    17  C   -0.076244   0.053443
    18  C    0.295966  -0.038403
    19  C   -0.396265  -0.001516
    20  C   -0.294861   0.002514
    21  C   -0.309023  -0.001697
    22  C    0.313970  -0.000180
    23  O   -0.355786   0.000135
    24  O   -0.289118  -0.000024
    25  C    0.209170  -0.001021
    26  C   -0.079708   0.159602
    27  C   -0.000634   0.071709
    28  C    0.228031   0.036194
    29  C   -0.426453  -0.013078
    30  C   -0.157694  -0.152133
    31  C   -0.347351   0.272641
    32  C    0.249557   0.020697
    33  C   -0.087385  -0.031745
    34  C    0.039868   0.029521
    35  C    0.153017   0.010712
    36  C   -0.362261   0.001450
    37  C   -0.158929  -0.039854
    38  C   -0.309154   0.064828
    39  C    0.185821   0.044724
    40  C   -0.101985   0.092757
    41  C    0.088164   0.027578
    42  C    0.160419   0.128925
    43  C   -0.410507  -0.008797
    44  C   -0.357394  -0.008924
    45  C   -0.242133   0.004371
    46  C    0.303225   0.000952
    47  O   -0.349263   0.000260
    48  O   -0.304746  -0.000015
    49  N    0.036673   0.026049
    50  N    0.056764  -0.082842
    51  N    0.028221   0.031076
    52  N    0.085165  -0.087152
    53  Fe  -0.427850   2.864333
    54  H    0.338549   0.000006
    55  H    0.142741  -0.000000
    56  H    0.126563   0.001562
    57  H    0.136301   0.000325
    58  H    0.138248  -0.000393
    59  H    0.121278   0.000931
    60  H    0.127458   0.000994
    61  H    0.142511  -0.000342
    62  H    0.147383  -0.000590
    63  H    0.343362   0.000216
    64  H    0.107936  -0.000719
    65  H    0.116392  -0.007488
    66  H    0.117069  -0.002419
    67  H    0.096028  -0.010746
    68  H    0.137151   0.003603
    69  H    0.117232   0.000717
    70  H    0.143031   0.004111
    71  H    0.129358   0.000152
    72  H    0.123513   0.000579
    73  H    0.148765   0.001751
    74  H    0.155380   0.002245
    75  H    0.127005   0.001725
    76  H    0.138310   0.007768
    77  H    0.111600  -0.000019
    78  H    0.139133  -0.000652
    79  H    0.140909  -0.000262
    80  H    0.118536  -0.002813
    81  H    0.137848  -0.003052
    82  H    0.111202   0.002912
    83  H    0.132899  -0.012782
    84  H    0.133699  -0.012141
    85  H    0.095273   0.006404
    86  H    0.158837   0.002409
    87  H    0.157693  -0.000582
    88  H    0.156688   0.003683
    89  H    0.124305   0.002584
    90  H    0.128880   0.000412
    91  H    0.124666   0.000865
    92  H    0.133657   0.000179
    93  H    0.136130   0.002746
    94  H    0.150428   0.000032
    95  H    0.113937   0.000096
    96  H    0.153498  -0.000033
    97  H    0.169312   0.001112
    98  H    0.171420   0.000744
    99  H    0.228138   0.002383
 Sum of Mulliken charges =  -0.00000   4.00000

 Dipole moment (field-independent basis, Debye):
    X=              3.9743    Y=             -1.0558    Z=             10.0759  Tot=             10.8827
 Quadrupole moment (field-independent basis, Debye-Ang):
   XX=           -388.0556   YY=           -321.8925   ZZ=           -294.9980
   XY=              2.3960   XZ=            -39.7833   YZ=             -5.4855

 Summary of Natural Population Analysis:

                                       Natural Population
                Natural  -----------------------------------------------
    Atom  No    Charge         Core      Valence    Rydberg      Total
 -----------------------------------------------------------------------
      C    1   -0.31925      0.99969     2.31637    0.00318     3.31925
      C    2    0.05235      0.99954     1.93894    0.00918     2.94765
      N    3   -0.23590      0.99968     2.72620    0.01002     3.73590
      C    4   -0.02882      0.99942     2.02051    0.00889     3.02882
      C    5    0.10216      0.99965     1.88714    0.01106     2.89784
      N    6   -0.14512      0.99972     2.62359    0.02181     3.64512
      C    7   -0.30432      0.99972     2.30048    0.00412     3.30432
      C    8   -0.26680      0.99963     2.25756    0.00961     3.26680
      S    9    0.34186      4.99919     2.63738    0.02157     7.65814
      C   10   -0.37154      0.99965     2.36324    0.00865     3.37154
      C   11   -0.13558      0.99950     2.12737    0.00871     3.13558
      C   12   -0.06820      0.99948     2.06035    0.00837     3.06820
      C   13   -0.12040      0.99946     2.11246    0.00849     3.12040
      C   14   -0.10301      0.99947     2.09496    0.00858     3.10301
      C   15    0.09951      0.99951     1.89027    0.01071     2.90049
      C   16   -0.02638      0.99941     2.01741    0.00956     3.02638
      C   17    0.01810      0.99927     1.97124    0.01139     2.98190
      C   18    0.06706      0.99950     1.92212    0.01132     2.93294
      C   19   -0.31934      0.99970     2.31593    0.00370     3.31934
      C   20   -0.20775      0.99968     2.20007    0.00800     3.20775
      C   21   -0.25774      0.99963     2.24957    0.00854     3.25774
      C   22    0.38032      0.99976     1.60256    0.01735     2.61968
      O   23   -0.29023      0.99989     3.27824    0.01210     4.29023
      O   24   -0.31587      0.99980     3.30065    0.01542     4.31587
      C   25    0.08399      0.99951     1.90557    0.01093     2.91601
      C   26    0.06291      0.99945     1.92888    0.00876     2.93709
      C   27   -0.04206      0.99941     2.03229    0.01036     3.04206
      C   28    0.10641      0.99948     1.88323    0.01088     2.89359
      C   29   -0.32238      0.99970     2.31907    0.00361     3.32238
      C   30   -0.14660      0.99963     2.13967    0.00729     3.14660
      C   31   -0.09608      0.99975     2.09081    0.00552     3.09608
      C   32    0.07643      0.99949     1.91353    0.01055     2.92357
      C   33    0.00902      0.99940     1.98278    0.00879     2.99098
      C   34   -0.05987      0.99940     2.05027    0.01021     3.05987
      C   35    0.10406      0.99953     1.88530    0.01112     2.89594
      C   36   -0.31735      0.99969     2.31375    0.00390     3.31735
      C   37   -0.10476      0.99963     2.09817    0.00696     3.10476
      C   38   -0.17173      0.99974     2.16661    0.00538     3.17173
      C   39    0.09936      0.99948     1.89007    0.01109     2.90064
      C   40    0.01661      0.99941     1.97539    0.00859     2.98339
      C   41    0.00174      0.99943     1.98931    0.00952     2.99826
      C   42    0.11788      0.99952     1.87193    0.01068     2.88212
      C   43   -0.31983      0.99970     2.31651    0.00362     3.31983
      C   44   -0.21786      0.99968     2.21083    0.00735     3.21786
      C   45   -0.25577      0.99963     2.24753    0.00860     3.25577
      C   46    0.38159      0.99974     1.60107    0.01760     2.61841
      O   47   -0.28237      0.99989     3.27071    0.01177     4.28237
      O   48   -0.33054      0.99980     3.31566    0.01509     4.33054
      N   49   -0.18915      0.99968     2.66597    0.02351     3.68915
      N   50   -0.22061      0.99967     2.69848    0.02247     3.72061
      N   51   -0.18628      0.99967     2.66449    0.02212     3.68628
      N   52   -0.22523      0.99968     2.70252    0.02303     3.72523
     Fe   53    1.45759      8.99507     2.51841    0.02892    11.54241
      H   54    0.24867      0.00000     0.25027    0.00106     0.25133
      H   55    0.11388      0.00000     0.38535    0.00076     0.38612
      H   56    0.10790      0.00000     0.39125    0.00084     0.39210
      H   57    0.11469      0.00000     0.38457    0.00074     0.38531
      H   58    0.11674      0.00000     0.38257    0.00070     0.38326
      H   59    0.09785      0.00000     0.40081    0.00134     0.40215
      H   60    0.11088      0.00000     0.38831    0.00081     0.38912
      H   61    0.11930      0.00000     0.38004    0.00065     0.38070
      H   62    0.12436      0.00000     0.37495    0.00069     0.37564
      H   63    0.25352      0.00000     0.24541    0.00107     0.24648
      H   64    0.10580      0.00000     0.39292    0.00128     0.39420
      H   65    0.10715      0.00000     0.39161    0.00123     0.39285
      H   66    0.10938      0.00000     0.38918    0.00145     0.39062
      H   67    0.10447      0.00000     0.39411    0.00142     0.39553
      H   68    0.11221      0.00000     0.38706    0.00073     0.38779
      H   69    0.10544      0.00000     0.39383    0.00072     0.39456
      H   70    0.11250      0.00000     0.38674    0.00077     0.38750
      H   71    0.10951      0.00000     0.38990    0.00059     0.39049
      H   72    0.10748      0.00000     0.39173    0.00079     0.39252
      H   73    0.11448      0.00000     0.38475    0.00077     0.38552
      H   74    0.11611      0.00000     0.38313    0.00076     0.38389
      H   75    0.10836      0.00000     0.39096    0.00068     0.39164
      H   76    0.11157      0.00000     0.38752    0.00091     0.38843
      H   77    0.11010      0.00000     0.38910    0.00081     0.38990
      H   78    0.11319      0.00000     0.38610    0.00070     0.38681
      H   79    0.11192      0.00000     0.38730    0.00078     0.38808
      H   80    0.08725      0.00000     0.41188    0.00087     0.41275
      H   81    0.09926      0.00000     0.40011    0.00063     0.40074
      H   82    0.10203      0.00000     0.39707    0.00091     0.39797
      H   83    0.09422      0.00000     0.40513    0.00065     0.40578
      H   84    0.09055      0.00000     0.40861    0.00084     0.40945
      H   85    0.09867      0.00000     0.40042    0.00090     0.40133
      H   86    0.11538      0.00000     0.38362    0.00100     0.38462
      H   87    0.12324      0.00000     0.37631    0.00045     0.37676
      H   88    0.11430      0.00000     0.38506    0.00064     0.38570
      H   89    0.11194      0.00000     0.38735    0.00071     0.38806
      H   90    0.10828      0.00000     0.39108    0.00064     0.39172
      H   91    0.10813      0.00000     0.39097    0.00090     0.39187
      H   92    0.10941      0.00000     0.38951    0.00108     0.39059
      H   93    0.11645      0.00000     0.38228    0.00127     0.38355
      H   94    0.11630      0.00000     0.38309    0.00061     0.38370
      H   95    0.10671      0.00000     0.39270    0.00059     0.39329
      H   96    0.11703      0.00000     0.38236    0.00061     0.38297
      H   97    0.11942      0.00000     0.37975    0.00083     0.38058
      H   98    0.11272      0.00000     0.38639    0.00089     0.38728
      H   99    0.20703      0.00000     0.29217    0.00079     0.29297
 =======================================================================
   * Total *    2.00002     64.97384   136.39877    0.62737   201.99998

 Normal termination of Gaussian 16 at Fri Nov 11 17:35:02 2022.
