 Gaussian 16, Revision A.03,
 Gaussian 16:  ES64L-G16RevA.03 25-Dec-2016

 ---------------------------------------------------------------------
 # polar def2tzvp empiricaldispersion=gd3bj int=grid=ultrafine pbe1pbe
 ---------------------------------------------------------------------

 ---------
 1jdl_II_S
 ---------
 Symbolic Z-matrix:
 Charge =  0 Multiplicity = 1

                         Standard orientation:
 ---------------------------------------------------------------------
 Center     Atomic      Atomic             Coordinates (Angstroms)
 Number     Number       Type             X           Y           Z
 ---------------------------------------------------------------------
      1          6           0        2.628197   -1.653437    4.968101
      2          6           0        1.748235   -1.176809    3.861118
      3          7           0        0.372586   -1.186335    3.945932
      4          6           0        2.046149   -0.743884    2.614204
      5          6           0       -0.138560   -0.788081    2.796042
      6          7           0        0.855806   -0.515189    1.969990
      7          6           0       -0.739312    3.003911   -2.731769
      8          6           0        0.569495    2.199125   -2.627158
      9         16           0        0.513857    0.426977   -2.321855
     10          6           0        1.846977   -0.128049   -3.358084
     11          6           0       -2.575871   -0.206679   -0.122090
     12          6           0        0.982946   -3.406362   -0.720520
     13          6           0        4.226628    0.134754   -0.180032
     14          6           0        0.698568    3.174317    0.948896
     15          6           0       -1.883354   -1.388270   -0.393026
     16          6           0       -2.510979   -2.634633   -0.763470
     17          6           0       -1.496928   -3.524758   -0.934836
     18          6           0       -0.265109   -2.825284   -0.657178
     19          6           0       -1.611219   -4.971493   -1.390583
     20          6           0       -4.022390   -2.900731   -0.779420
     21          6           0       -4.413907   -3.359814    0.624465
     22          6           0       -5.920021   -3.549819    0.827078
     23          8           0       -6.694327   -3.439326   -0.144123
     24          8           0       -6.328114   -3.822468    1.974742
     25          6           0        2.177199   -2.711111   -0.594377
     26          6           0        3.486565   -3.299901   -0.725974
     27          6           0        4.357073   -2.248457   -0.799642
     28          6           0        3.630986   -1.086835   -0.453372
     29          6           0        3.777097   -4.794450   -0.744555
     30          6           0        5.635529   -2.155796   -1.388016
     31          6           0        6.403027   -3.220598   -2.152412
     32          6           0        3.549816    1.279575    0.125707
     33          6           0        4.168260    2.558566    0.405614
     34          6           0        3.155792    3.428939    0.552724
     35          6           0        1.936804    2.647933    0.617000
     36          6           0        5.667786    2.836749    0.528651
     37          6           0        3.160709    4.839283    0.470760
     38          6           0        4.329621    5.815657    0.394968
     39          6           0       -0.499300    2.505772    0.834699
     40          6           0       -1.788819    3.127881    1.022625
     41          6           0       -2.726000    2.206661    0.646958
     42          6           0       -1.979690    1.007552    0.251152
     43          6           0       -2.062936    4.563454    1.479455
     44          6           0       -4.237221    2.435493    0.549054
     45          6           0       -4.522676    2.884367   -0.888457
     46          6           0       -5.962039    3.292759   -1.128965
     47          8           0       -6.264316    3.711526   -2.267450
     48          8           0       -6.793143    3.198227   -0.199038
     49          7           0       -0.504776   -1.504065   -0.347971
     50          7           0        2.263013   -1.346479   -0.413305
     51          7           0        2.172036    1.345818    0.236454
     52          7           0       -0.609798    1.205371    0.371142
     53         26           0        0.839391   -0.064255   -0.077962
     54          1           0       -5.804586   -3.577348    2.741184
     55          1           0       -3.924645   -4.289841    0.825894
     56          1           0       -4.066100   -2.632811    1.328309
     57          1           0       -4.548121   -2.002941   -1.029380
     58          1           0       -4.250264   -3.667102   -1.490509
     59          1           0       -4.537458    3.197891    1.237173
     60          1           0       -4.759700    1.525670    0.759141
     61          1           0       -3.889817    3.716179   -1.117540
     62          1           0       -4.281859    2.079274   -1.550826
     63          1           0       -6.622239    3.626692    0.642870
     64          1           0       -3.642398   -0.228639   -0.205385
     65          1           0        0.671568    4.176671    1.322336
     66          1           0        5.295065    0.183535   -0.211053
     67          1           0        1.034461   -4.463553   -0.877342
     68          1           0       -1.376548    5.228193    0.997902
     69          1           0       -3.064634    4.835344    1.219496
     70          1           0       -1.939175    4.629973    2.540190
     71          1           0       -0.680933   -5.472827   -1.222858
     72          1           0       -2.384793   -5.460133   -0.835862
     73          1           0       -1.848328   -4.999194   -2.433613
     74          1           0        4.725511   -4.979168   -0.284893
     75          1           0        3.012285   -5.313201   -0.205241
     76          1           0        3.797660   -5.141240   -1.756590
     77          1           0        5.822972    3.878461    0.717473
     78          1           0        6.071701    2.263709    1.336968
     79          1           0        6.157329    2.562616   -0.382447
     80          1           0        5.334741    5.448999    0.409008
     81          1           0        4.144695    6.867410    0.327746
     82          1           0        2.192087    5.293772    0.460203
     83          1           0        7.433211   -3.065857   -2.396700
     84          1           0        5.913501   -4.125429   -2.446597
     85          1           0        6.129144   -1.212384   -1.282102
     86          1           0        2.781570    0.135138   -2.908453
     87          1           0        1.792246   -1.190655   -3.471106
     88          1           0        1.769671    0.337235   -4.318519
     89          1           0        1.104795    2.345717   -3.541961
     90          1           0       -0.575583    3.874710   -3.331603
     91          1           0       -1.496102    2.396978   -3.183213
     92          1           0       -1.055617    3.299214   -1.753174
     93          1           0        1.148191    2.637383   -1.841066
     94          1           0        3.288583   -0.865035    5.263418
     95          1           0        2.025308   -1.945079    5.802589
     96          1           0        3.201652   -2.491951    4.632027
     97          1           0        3.025852   -0.605726    2.206780
     98          1           0       -1.181018   -0.701033    2.571091
     99          1           0       -0.155405   -1.453126    4.752188
 ---------------------------------------------------------------------

 SCF Done:  E(RPBE1PBE) =  -3879.40544531     A.U. after   23 cycles

 The electronic state is 1-A.
 Alpha  occ. eigenvalues -- -256.31825 -89.02440 -30.08844 -25.91660 -25.91292
 Alpha  occ. eigenvalues --  -25.91232 -19.27642 -19.26239 -19.17931 -19.17493
 Alpha  occ. eigenvalues --  -14.45588 -14.39417 -14.37912 -14.37891 -14.37791
 Alpha  occ. eigenvalues --  -14.37313 -10.35550 -10.34963 -10.28631 -10.26628
 Alpha  occ. eigenvalues --  -10.25418 -10.24823 -10.24757 -10.24705 -10.24649
 Alpha  occ. eigenvalues --  -10.24633 -10.24590 -10.24577 -10.24417 -10.24414
 Alpha  occ. eigenvalues --  -10.24060 -10.24035 -10.23835 -10.23620 -10.23447
 Alpha  occ. eigenvalues --  -10.23129 -10.23088 -10.23027 -10.23001 -10.22900
 Alpha  occ. eigenvalues --  -10.22895 -10.22834 -10.22805 -10.22747 -10.22355
 Alpha  occ. eigenvalues --  -10.22345 -10.22267 -10.22067 -10.21935 -10.21813
 Alpha  occ. eigenvalues --  -10.21813 -10.21750 -10.21597 -10.21592 -10.21564
 Alpha  occ. eigenvalues --  -10.21496 -10.20239  -8.00259  -5.93913  -5.93614
 Alpha  occ. eigenvalues --   -5.93097  -3.43278  -2.19234  -2.18617  -2.18508
 Alpha  occ. eigenvalues --   -1.17980  -1.16893  -1.07372  -1.03113  -1.02348
 Alpha  occ. eigenvalues --   -0.98263  -0.97219  -0.96996  -0.96010  -0.91541
 Alpha  occ. eigenvalues --   -0.84582  -0.84136  -0.83916  -0.83632  -0.82959
 Alpha  occ. eigenvalues --   -0.82508  -0.82283  -0.81401  -0.81013  -0.79482
 Alpha  occ. eigenvalues --   -0.78831  -0.76733  -0.76529  -0.75709  -0.75186
 Alpha  occ. eigenvalues --   -0.73434  -0.73385  -0.72882  -0.71864  -0.71402
 Alpha  occ. eigenvalues --   -0.70298  -0.69945  -0.69571  -0.67568  -0.67212
 Alpha  occ. eigenvalues --   -0.66938  -0.65727  -0.65534  -0.65473  -0.63088
 Alpha  occ. eigenvalues --   -0.62896  -0.62237  -0.60231  -0.59547  -0.57923
 Alpha  occ. eigenvalues --   -0.57367  -0.56367  -0.55321  -0.54724  -0.54547
 Alpha  occ. eigenvalues --   -0.53978  -0.53812  -0.52767  -0.52473  -0.51716
 Alpha  occ. eigenvalues --   -0.51179  -0.50844  -0.49657  -0.49122  -0.48839
 Alpha  occ. eigenvalues --   -0.48759  -0.48467  -0.48353  -0.47763  -0.47521
 Alpha  occ. eigenvalues --   -0.46756  -0.46431  -0.46069  -0.45860  -0.45639
 Alpha  occ. eigenvalues --   -0.45127  -0.45008  -0.44833  -0.44665  -0.44616
 Alpha  occ. eigenvalues --   -0.44346  -0.44179  -0.43982  -0.43963  -0.43795
 Alpha  occ. eigenvalues --   -0.43670  -0.43482  -0.43293  -0.43106  -0.42672
 Alpha  occ. eigenvalues --   -0.42421  -0.41786  -0.41677  -0.41158  -0.41057
 Alpha  occ. eigenvalues --   -0.40940  -0.40701  -0.40378  -0.40254  -0.39733
 Alpha  occ. eigenvalues --   -0.39606  -0.39464  -0.39339  -0.39214  -0.38704
 Alpha  occ. eigenvalues --   -0.38440  -0.38230  -0.37965  -0.37749  -0.37542
 Alpha  occ. eigenvalues --   -0.37092  -0.36920  -0.36259  -0.36063  -0.35711
 Alpha  occ. eigenvalues --   -0.35642  -0.35318  -0.34991  -0.33649  -0.33280
 Alpha  occ. eigenvalues --   -0.33091  -0.32962  -0.32701  -0.32592  -0.32394
 Alpha  occ. eigenvalues --   -0.31286  -0.31116  -0.30589  -0.29985  -0.28250
 Alpha  occ. eigenvalues --   -0.27942  -0.27664  -0.27393  -0.25809  -0.25346
 Alpha  occ. eigenvalues --   -0.24841  -0.24038  -0.22257  -0.21968  -0.20915
 Alpha  occ. eigenvalues --   -0.19209  -0.19039  -0.18802  -0.18688
 Alpha virt. eigenvalues --   -0.07928  -0.07763  -0.04316  -0.02181  -0.00680
 Alpha virt. eigenvalues --   -0.00223   0.00807   0.01131   0.01360   0.01486
 Alpha virt. eigenvalues --    0.01855   0.02351   0.03553   0.03645   0.03960

 Mulliken charges:
               1
     1  C   -0.355115
     2  C    0.127722
     3  N   -0.217868
     4  C   -0.178738
     5  C    0.017729
     6  N   -0.016682
     7  C   -0.359490
     8  C   -0.158891
     9  S    0.065694
    10  C   -0.381003
    11  C   -0.553075
    12  C   -0.486751
    13  C   -0.493527
    14  C   -0.417890
    15  C    0.284080
    16  C   -0.012500
    17  C   -0.077957
    18  C    0.286628
    19  C   -0.395538
    20  C   -0.295809
    21  C   -0.308711
    22  C    0.313612
    23  O   -0.356123
    24  O   -0.289352
    25  C    0.210784
    26  C   -0.060348
    27  C   -0.010775
    28  C    0.233476
    29  C   -0.425310
    30  C   -0.154778
    31  C   -0.333217
    32  C    0.244856
    33  C   -0.093702
    34  C    0.035587
    35  C    0.148690
    36  C   -0.363746
    37  C   -0.156019
    38  C   -0.314279
    39  C    0.181710
    40  C   -0.092006
    41  C    0.081477
    42  C    0.178327
    43  C   -0.408347
    44  C   -0.356376
    45  C   -0.242337
    46  C    0.303102
    47  O   -0.348176
    48  O   -0.304516
    49  N    0.044277
    50  N    0.057320
    51  N    0.044371
    52  N    0.074097
    53  Fe  -0.530225
    54  H    0.338474
    55  H    0.142261
    56  H    0.126635
    57  H    0.134629
    58  H    0.137392
    59  H    0.122312
    60  H    0.128460
    61  H    0.143611
    62  H    0.147961
    63  H    0.343437
    64  H    0.109782
    65  H    0.119019
    66  H    0.117467
    67  H    0.099264
    68  H    0.139362
    69  H    0.118770
    70  H    0.144692
    71  H    0.124640
    72  H    0.123533
    73  H    0.148840
    74  H    0.158651
    75  H    0.130305
    76  H    0.142439
    77  H    0.111338
    78  H    0.136818
    79  H    0.138102
    80  H    0.117079
    81  H    0.135962
    82  H    0.107492
    83  H    0.136930
    84  H    0.136243
    85  H    0.101531
    86  H    0.152517
    87  H    0.150650
    88  H    0.152910
    89  H    0.120206
    90  H    0.127107
    91  H    0.122795
    92  H    0.127547
    93  H    0.131671
    94  H    0.149093
    95  H    0.112847
    96  H    0.150214
    97  H    0.162484
    98  H    0.165653
    99  H    0.226513
 Sum of Mulliken charges =  -0.00000

 Dipole moment (field-independent basis, Debye):
    X=              4.4366    Y=             -1.8341    Z=              9.8926  Tot=             10.9959
 Quadrupole moment (field-independent basis, Debye-Ang):
   XX=           -380.7254   YY=           -316.6188   ZZ=           -296.1392
   XY=             -5.4168   XZ=            -42.4074   YZ=             -2.6683

  Exact polarizability: 877.144  -4.007 807.496 -34.590  66.712 450.999
 Approx polarizability:1549.261   0.7051480.579 -72.258 181.879 731.150

 Normal termination of Gaussian 16 at Tue Nov  8 19:46:06 2022.
