 Gaussian 16, Revision A.03,
 Gaussian 16:  ES64L-G16RevA.03 25-Dec-2016

 ----------------------------------------------------------------------
 # PBE1PBE/def2TZVP empiricaldispersion=GD3BJ scf=maxcycle=999 geom=che
 ck pop=nbo guess=read
 ----------------------------------------------------------------------

 ----------
 1jp6_III_D
 ----------
 Structure from the checkpoint file:  "1jp6_III_D.chk"
 Charge =  1 Multiplicity = 2

                         Standard orientation:
 ---------------------------------------------------------------------
 Center     Atomic      Atomic             Coordinates (Angstroms)
 Number     Number       Type             X           Y           Z
 ---------------------------------------------------------------------
      1          6           0       -1.584205   -0.057152    5.370489
      2          6           0       -1.242066   -0.471764    3.973568
      3          7           0       -0.535866   -1.621002    3.694172
      4          6           0       -1.447994    0.141076    2.782630
      5          6           0       -0.316856   -1.696704    2.393819
      6          7           0       -0.859390   -0.640343    1.817736
      7         26           0       -0.766322    0.128867   -0.424672
      8          6           0        2.581493   -0.493736   -0.369636
      9          6           0       -1.355789   -3.166658   -1.095311
     10          6           0       -4.119473    0.756792   -0.533048
     11          6           0       -0.156752    3.390013    0.179876
     12          7           0        0.370110   -1.494202   -0.671496
     13          6           0        1.743426   -1.569620   -0.609168
     14          6           0        2.197858   -2.938607   -0.834561
     15          6           0        1.061533   -3.679167   -1.040661
     16          6           0       -0.046396   -2.791976   -0.942789
     17          6           0        0.951997   -5.163364   -1.322324
     18          6           0        3.620105   -3.362424   -0.823294
     19          6           0        4.005448   -4.166983    0.466937
     20          6           0        3.576569   -3.461056    1.726091
     21          8           0        4.149629   -2.428134    2.113617
     22          8           0        2.602098   -3.968465    2.377287
     23          7           0       -2.411712   -0.957573   -0.740316
     24          6           0       -2.458179   -2.321663   -1.005427
     25          6           0       -3.859484   -2.736871   -1.175466
     26          6           0       -4.618238   -1.651160   -1.017793
     27          6           0       -3.708626   -0.563278   -0.752238
     28          6           0       -4.262917   -4.155014   -1.473858
     29          6           0       -6.126238   -1.518125   -1.090390
     30          6           0       -6.795504   -1.977217   -2.175694
     31          7           0       -1.908643    1.766540   -0.205741
     32          6           0       -3.294525    1.844915   -0.283766
     33          6           0       -3.736045    3.196704   -0.081252
     34          6           0       -2.606563    3.923564    0.110480
     35          6           0       -1.485549    3.022443    0.037543
     36          6           0       -5.171943    3.626123   -0.106531
     37          6           0       -2.401352    5.384615    0.355273
     38          6           0       -3.468018    6.218686    0.411099
     39          7           0        0.898746    1.249813   -0.137454
     40          6           0        0.960598    2.584794    0.101315
     41          6           0        2.307849    3.023893    0.240636
     42          6           0        3.091120    1.908082    0.071172
     43          6           0        2.199071    0.798753   -0.156548
     44          6           0        2.758169    4.440458    0.504000
     45          6           0        4.593450    1.875612    0.099853
     46          6           0        5.055845    2.223391   -1.367659
     47          6           0        6.536559    2.258469   -1.601950
     48          8           0        7.265699    3.172814   -1.155872
     49          8           0        7.026668    1.325391   -2.297852
     50          8           0       -0.627854    0.797905   -2.584563
     51          1           0        0.159195    0.964561   -3.108375
     52          1           0       -0.378032    0.388338   -1.753032
     53          1           0       -1.970876    1.060948    2.623474
     54          1           0        0.210741   -2.481120    1.892587
     55          1           0       -0.235668   -2.293462    4.370692
     56          1           0       -1.698815    1.005994    5.409035
     57          1           0       -2.499230   -0.525531    5.667558
     58          1           0       -0.799153   -0.355525    6.033488
     59          1           0        4.675685   -1.911598    1.498755
     60          1           0        5.066859   -4.300563    0.488428
     61          1           0        3.535181   -5.127403    0.430281
     62          1           0        4.239406   -2.491992   -0.884247
     63          1           0        3.803226   -3.976880   -1.679921
     64          1           0        7.831249    3.669571   -1.751678
     65          1           0        4.632047    1.497721   -2.030001
     66          1           0        4.656533    3.182696   -1.622971
     67          1           0        4.965791    2.605982    0.787474
     68          1           0        4.936813    0.900001    0.374051
     69          1           0        2.768487    4.988147   -0.415146
     70          1           0        2.082894    4.907666    1.190018
     71          1           0        3.742317    4.429637    0.923804
     72          1           0        0.024830    4.426328    0.374761
     73          1           0        3.632090   -0.695595   -0.349658
     74          1           0        1.774824   -5.472259   -1.932603
     75          1           0        0.970039   -5.703891   -0.399066
     76          1           0        0.033751   -5.362426   -1.834278
     77          1           0       -1.547402   -4.198970   -1.301506
     78          1           0       -3.562544   -4.588943   -2.156561
     79          1           0       -4.273750   -4.721281   -0.566046
     80          1           0       -5.239415   -4.163532   -1.911212
     81          1           0       -5.172347    0.945500   -0.560328
     82          1           0       -5.503240    3.703601   -1.120996
     83          1           0       -5.769347    2.903891    0.409598
     84          1           0       -5.268235    4.577410    0.373760
     85          1           0       -1.412345    5.771383    0.486332
     86          1           0       -3.805138    6.716082   -0.474253
     87          1           0       -3.973086    6.379831    1.340528
     88          1           0       -6.662455   -1.061727   -0.284740
     89          1           0       -6.525360   -2.915459   -2.613443
     90          1           0       -7.594069   -1.401452   -2.594847
 ---------------------------------------------------------------------

 SCF Done:  E(UPBE1PBE) =  -3438.34921284     A.U. after    1 cycles

 Alpha virt. eigenvalues --    0.63210   0.63468   0.63860   0.64138   0.64242
 Alpha virt. eigenvalues --    0.64692   0.64914   0.65229   0.65631   0.65987
 Alpha virt. eigenvalues --    0.66106   0.66282   0.66751   0.66879   0.67365

  Beta  occ. eigenvalues -- -256.43806 -30.18376 -26.01983 -26.01702 -26.00175
  Beta  occ. eigenvalues --  -19.35532 -19.33024 -19.27303 -19.25115 -19.24737
  Beta  occ. eigenvalues --  -14.51609 -14.49922 -14.48195 -14.48161 -14.47671
  Beta  occ. eigenvalues --  -14.45140 -10.43303 -10.42526 -10.40056 -10.36848
  Beta  occ. eigenvalues --  -10.36751 -10.36411 -10.36070 -10.36052 -10.35930
  Beta  occ. eigenvalues --  -10.35793 -10.35463 -10.35368 -10.35265 -10.35007
  Beta  occ. eigenvalues --  -10.34992 -10.33320 -10.32790 -10.32712 -10.32660
  Beta  occ. eigenvalues --  -10.32633 -10.32548 -10.32526 -10.32521 -10.32462
  Beta  occ. eigenvalues --  -10.32441 -10.32407 -10.32379 -10.32305 -10.32149
  Beta  occ. eigenvalues --  -10.31858 -10.31716 -10.31618 -10.30867 -10.30787
  Beta  occ. eigenvalues --  -10.30738 -10.29959 -10.29645 -10.29637  -3.51117
  Beta  occ. eigenvalues --   -2.27826  -2.27181  -2.23910  -1.25695  -1.23835
  Beta  occ. eigenvalues --   -1.13554  -1.11769  -1.10237  -1.09089  -1.08821
  Beta  occ. eigenvalues --   -1.08443  -1.08050  -1.07037  -0.97601  -0.97222
  Beta  occ. eigenvalues --   -0.94815  -0.93472  -0.93383  -0.92622  -0.92450
  Beta  occ. eigenvalues --   -0.91674  -0.90719  -0.88582  -0.88482  -0.88045
  Beta  occ. eigenvalues --   -0.86772  -0.86438  -0.84994  -0.83294  -0.82332
  Beta  occ. eigenvalues --   -0.81609  -0.79892  -0.79637  -0.78601  -0.78304
  Beta  occ. eigenvalues --   -0.77212  -0.76467  -0.75866  -0.74760  -0.74274
  Beta  occ. eigenvalues --   -0.71395  -0.70517  -0.70378  -0.69509  -0.68780
  Beta  occ. eigenvalues --   -0.67204  -0.66600  -0.66181  -0.65563  -0.64575
  Beta  occ. eigenvalues --   -0.63622  -0.63153  -0.62959  -0.62861  -0.61728
  Beta  occ. eigenvalues --   -0.60953  -0.60318  -0.59529  -0.59261  -0.59031
  Beta  occ. eigenvalues --   -0.57946  -0.57925  -0.57689  -0.57098  -0.56297
  Beta  occ. eigenvalues --   -0.56196  -0.55946  -0.55559  -0.55172  -0.55028
  Beta  occ. eigenvalues --   -0.54833  -0.54552  -0.54442  -0.54355  -0.54011
  Beta  occ. eigenvalues --   -0.53635  -0.53221  -0.52887  -0.52328  -0.52106
  Beta  occ. eigenvalues --   -0.52011  -0.51762  -0.51623  -0.51588  -0.51377
  Beta  occ. eigenvalues --   -0.50936  -0.50582  -0.50532  -0.50365  -0.50204
  Beta  occ. eigenvalues --   -0.49882  -0.49669  -0.49259  -0.49117  -0.48932
  Beta  occ. eigenvalues --   -0.48550  -0.48232  -0.48110  -0.47782  -0.47640
  Beta  occ. eigenvalues --   -0.47354  -0.47014  -0.46625  -0.46082  -0.45911
  Beta  occ. eigenvalues --   -0.45392  -0.45062  -0.43752  -0.43472  -0.43158
  Beta  occ. eigenvalues --   -0.42616  -0.42157  -0.40903  -0.39831  -0.39736
  Beta  occ. eigenvalues --   -0.39684  -0.39090  -0.38842  -0.38361  -0.37840
  Beta  occ. eigenvalues --   -0.36336  -0.35332  -0.35041  -0.34995  -0.34337
  Beta  occ. eigenvalues --   -0.33552  -0.32125  -0.31692  -0.31618  -0.30309
  Beta  occ. eigenvalues --   -0.29999  -0.29412
  Beta virt. eigenvalues --   -0.23466  -0.17785  -0.17338  -0.12144  -0.11130
  Beta virt. eigenvalues --   -0.10337  -0.09199  -0.08780  -0.08021  -0.07392
  Beta virt. eigenvalues --   -0.05611  -0.05449  -0.05230  -0.04790  -0.04385

 Mulliken charges and spin densities:
               1          2
     1  C   -0.373754   0.000673
     2  C    0.145457   0.002067
     3  N   -0.212280   0.001361
     4  C   -0.180434   0.002286
     5  C    0.023636   0.000600
     6  N   -0.228002   0.038458
     7  Fe  -0.195517   2.049730
     8  C   -0.487091  -0.004070
     9  C   -0.478440   0.000550
    10  C   -0.481666   0.009635
    11  C   -0.498433  -0.004198
    12  N    0.009397  -0.034684
    13  C    0.356649   0.001441
    14  C    0.013896  -0.007304
    15  C   -0.038804   0.005614
    16  C    0.318853  -0.006832
    17  C   -0.414611  -0.000412
    18  C   -0.435199   0.000468
    19  C   -0.202093  -0.000557
    20  C    0.298283   0.000095
    21  O   -0.257011  -0.000024
    22  O   -0.411132  -0.000016
    23  N    0.001389  -0.043368
    24  C    0.284454  -0.006050
    25  C   -0.070889   0.004067
    26  C    0.000068   0.008619
    27  C    0.286652  -0.009620
    28  C   -0.359616  -0.000561
    29  C   -0.241967  -0.003467
    30  C   -0.236870   0.004697
    31  N    0.003207  -0.032231
    32  C    0.314548  -0.018695
    33  C   -0.096006   0.041837
    34  C   -0.039443  -0.072018
    35  C    0.328461  -0.025438
    36  C   -0.360188  -0.007922
    37  C    0.020341   0.119426
    38  C   -0.339609  -1.046894
    39  N   -0.010438  -0.040811
    40  C    0.294309  -0.019219
    41  C   -0.092165   0.024750
    42  C    0.011982  -0.015696
    43  C    0.253951   0.004845
    44  C   -0.397691  -0.001523
    45  C   -0.330555   0.000789
    46  C   -0.133231  -0.000974
    47  C    0.257360  -0.000160
    48  O   -0.343614  -0.000034
    49  O   -0.364545  -0.000132
    50  O   -0.507459   0.058968
    51  H    0.322566   0.010543
    52  H    0.245303  -0.019974
    53  H    0.124250   0.001030
    54  H    0.191914   0.000538
    55  H    0.245650   0.001015
    56  H    0.140977   0.000003
    57  H    0.150981   0.000034
    58  H    0.138440   0.000068
    59  H    0.337385  -0.000005
    60  H    0.153025  -0.000059
    61  H    0.141323   0.000026
    62  H    0.165692  -0.000088
    63  H    0.151584  -0.000274
    64  H    0.366961  -0.000000
    65  H    0.143379   0.000074
    66  H    0.120535   0.000017
    67  H    0.147754  -0.000327
    68  H    0.103295  -0.000152
    69  H    0.158976   0.001160
    70  H    0.137728   0.000482
    71  H    0.145278   0.000168
    72  H    0.086204  -0.001027
    73  H    0.069385  -0.000124
    74  H    0.145873   0.000066
    75  H    0.172824   0.000262
    76  H    0.135644   0.000036
    77  H    0.129834  -0.000236
    78  H    0.138062   0.000124
    79  H    0.159369   0.000078
    80  H    0.122868  -0.000036
    81  H    0.136990  -0.000873
    82  H    0.172113   0.001849
    83  H    0.151131  -0.000722
    84  H    0.147141   0.003763
    85  H    0.168282  -0.055554
    86  H    0.192806   0.040167
    87  H    0.192921   0.040121
    88  H    0.151868   0.000233
    89  H    0.137163  -0.000235
    90  H    0.152389  -0.000243
 Sum of Mulliken charges =   1.00000   1.00000

 Dipole moment (field-independent basis, Debye):
    X=             -4.2245    Y=              7.4193    Z=              1.6455  Tot=              8.6948
 Quadrupole moment (field-independent basis, Debye-Ang):
   XX=           -200.2181   YY=           -183.3129   ZZ=           -276.8391
   XY=             -5.4110   XZ=             -2.1934   YZ=             10.7117

 Summary of Natural Population Analysis:

                                       Natural Population
                Natural  -----------------------------------------------
    Atom  No    Charge         Core      Valence    Rydberg      Total
 -----------------------------------------------------------------------
      C    1   -0.32034      0.99969     2.31747    0.00317     3.32034
      C    2    0.05534      0.99955     1.93582    0.00929     2.94466
      N    3   -0.23773      0.99968     2.72770    0.01035     3.73773
      C    4   -0.04895      0.99945     2.04009    0.00941     3.04895
      C    5    0.09167      0.99969     1.89848    0.01015     2.90833
      N    6   -0.19223      0.99970     2.67179    0.02074     3.69223
     Fe    7    1.19220      8.99018     2.79930    0.01832    11.80780
      C    8   -0.12652      0.99946     2.11827    0.00878     3.12652
      C    9   -0.10856      0.99948     2.10136    0.00772     3.10856
      C   10   -0.09757      0.99951     2.09048    0.00758     3.09757
      C   11   -0.11719      0.99951     2.10943    0.00825     3.11719
      N   12   -0.22201      0.99968     2.69955    0.02277     3.72201
      C   13    0.10026      0.99953     1.88934    0.01087     2.89974
      C   14   -0.01865      0.99948     2.00975    0.00943     3.01865
      C   15    0.00497      0.99944     1.98716    0.00843     2.99503
      C   16    0.08243      0.99948     1.90760    0.01048     2.91757
      C   17   -0.32082      0.99970     2.31499    0.00613     3.32082
      C   18   -0.21244      0.99964     2.20553    0.00727     3.21244
      C   19   -0.25250      0.99962     2.24474    0.00813     3.25250
      C   20    0.38179      0.99973     1.60164    0.01685     2.61821
      O   21   -0.30889      0.99980     3.29305    0.01605     4.30889
      O   22   -0.30525      0.99990     3.29429    0.01106     4.30525
      N   23   -0.21481      0.99968     2.69569    0.01943     3.71481
      C   24    0.10304      0.99956     1.88753    0.00986     2.89696
      C   25    0.00106      0.99942     1.99126    0.00827     2.99894
      C   26   -0.03057      0.99933     2.02065    0.01059     3.03057
      C   27    0.09704      0.99954     1.89304    0.01038     2.90296
      C   28   -0.31958      0.99970     2.31347    0.00641     3.31958
      C   29   -0.10699      0.99961     2.09799    0.00938     3.10699
      C   30   -0.16606      0.99964     2.15819    0.00823     3.16606
      N   31   -0.18721      0.99969     2.66477    0.02275     3.68721
      C   32    0.06773      0.99953     1.92262    0.01012     2.93227
      C   33    0.04097      0.99943     1.95029    0.00931     2.95903
      C   34   -0.08375      0.99942     2.07373    0.01059     3.08375
      C   35    0.08204      0.99954     1.90780    0.01062     2.91796
      C   36   -0.33116      0.99969     2.32493    0.00653     3.33116
      C   37    0.03460      0.99962     1.95664    0.00914     2.96540
      C   38   -0.67046      0.99966     2.65895    0.01185     3.67046
      N   39   -0.22541      0.99967     2.70571    0.02003     3.72541
      C   40    0.07605      0.99951     1.91410    0.01033     2.92395
      C   41    0.01003      0.99945     1.98216    0.00836     2.98997
      C   42   -0.01786      0.99947     2.00924    0.00914     3.01786
      C   43    0.09838      0.99950     1.89172    0.01040     2.90162
      C   44   -0.32241      0.99970     2.31649    0.00621     3.32241
      C   45   -0.20622      0.99966     2.20010    0.00646     3.20622
      C   46   -0.24390      0.99961     2.23591    0.00839     3.24390
      C   47    0.37607      0.99974     1.60623    0.01796     2.62393
      O   48   -0.33565      0.99980     3.32172    0.01414     4.33565
      O   49   -0.29218      0.99990     3.28079    0.01149     4.29218
      O   50   -0.37588      0.99993     3.36882    0.00714     4.37588
      H   51    0.24248      0.00000     0.25601    0.00151     0.25752
      H   52    0.18909      0.00000     0.30759    0.00332     0.31091
      H   53    0.10741      0.00000     0.39193    0.00066     0.39259
      H   54    0.11484      0.00000     0.38422    0.00095     0.38516
      H   55    0.21200      0.00000     0.28716    0.00084     0.28800
      H   56    0.11618      0.00000     0.38332    0.00050     0.38382
      H   57    0.11381      0.00000     0.38551    0.00068     0.38619
      H   58    0.11205      0.00000     0.38731    0.00065     0.38795
      H   59    0.25013      0.00000     0.24891    0.00095     0.24987
      H   60    0.11397      0.00000     0.38534    0.00070     0.38603
      H   61    0.12264      0.00000     0.37669    0.00066     0.37736
      H   62    0.10394      0.00000     0.39527    0.00080     0.39606
      H   63    0.12144      0.00000     0.37773    0.00082     0.37856
      H   64    0.26266      0.00000     0.23618    0.00116     0.23734
      H   65    0.12026      0.00000     0.37910    0.00064     0.37974
      H   66    0.11149      0.00000     0.38779    0.00071     0.38851
      H   67    0.11509      0.00000     0.38407    0.00084     0.38491
      H   68    0.10597      0.00000     0.39318    0.00085     0.39403
      H   69    0.11625      0.00000     0.38306    0.00069     0.38375
      H   70    0.11291      0.00000     0.38651    0.00059     0.38709
      H   71    0.11499      0.00000     0.38437    0.00064     0.38501
      H   72    0.10382      0.00000     0.39443    0.00175     0.39618
      H   73    0.10284      0.00000     0.39541    0.00175     0.39716
      H   74    0.11462      0.00000     0.38477    0.00062     0.38538
      H   75    0.12016      0.00000     0.37913    0.00071     0.37984
      H   76    0.11116      0.00000     0.38835    0.00049     0.38884
      H   77    0.11354      0.00000     0.38513    0.00133     0.38646
      H   78    0.11266      0.00000     0.38681    0.00053     0.38734
      H   79    0.11785      0.00000     0.38151    0.00064     0.38215
      H   80    0.11348      0.00000     0.38592    0.00060     0.38652
      H   81    0.11388      0.00000     0.38469    0.00143     0.38612
      H   82    0.12394      0.00000     0.37541    0.00065     0.37606
      H   83    0.11835      0.00000     0.38111    0.00055     0.38165
      H   84    0.11780      0.00000     0.38147    0.00074     0.38220
      H   85    0.08524      0.00000     0.41361    0.00115     0.41476
      H   86    0.13150      0.00000     0.36760    0.00090     0.36850
      H   87    0.13029      0.00000     0.36879    0.00092     0.36971
      H   88    0.10975      0.00000     0.38934    0.00091     0.39025
      H   89    0.09735      0.00000     0.40160    0.00105     0.40265
      H   90    0.10627      0.00000     0.39300    0.00074     0.39373
 =======================================================================
   * Total *    1.00000     57.97091   128.44770    0.58139   187.00000

 Normal termination of Gaussian 16 at Mon Nov 14 10:06:16 2022.
