 Gaussian 16, Revision A.03,
 Gaussian 16:  AM64L-G16RevA.03 25-Dec-2016

 ----------------------------------------------------------------------
 # PBE1PBE/def2TZVP empiricaldispersion=GD3BJ int=(grid=ultrafine) geom
 =check pop=nbo
 ----------------------------------------------------------------------

 ---------
 1jp6_II_Q
 ---------
 Structure from the checkpoint file:  "1lp6_II_Q.chk"
 Charge =  0 Multiplicity = 5

                         Standard orientation:
 ---------------------------------------------------------------------
 Center     Atomic      Atomic             Coordinates (Angstroms)
 Number     Number       Type             X           Y           Z
 ---------------------------------------------------------------------
      1          6           0       -1.584205   -0.057152    5.370489
      2          6           0       -1.242066   -0.471764    3.973568
      3          7           0       -0.535866   -1.621002    3.694172
      4          6           0       -1.447994    0.141076    2.782630
      5          6           0       -0.316856   -1.696704    2.393819
      6          7           0       -0.859390   -0.640343    1.817736
      7         26           0       -0.766322    0.128867   -0.424672
      8          6           0        2.581493   -0.493736   -0.369636
      9          6           0       -1.355789   -3.166658   -1.095311
     10          6           0       -4.119473    0.756792   -0.533048
     11          6           0       -0.156752    3.390013    0.179876
     12          7           0        0.370110   -1.494202   -0.671496
     13          6           0        1.743426   -1.569620   -0.609168
     14          6           0        2.197858   -2.938607   -0.834561
     15          6           0        1.061533   -3.679167   -1.040661
     16          6           0       -0.046396   -2.791976   -0.942789
     17          6           0        0.951997   -5.163364   -1.322324
     18          6           0        3.620105   -3.362424   -0.823294
     19          6           0        4.005448   -4.166983    0.466937
     20          6           0        3.576569   -3.461056    1.726091
     21          8           0        4.149629   -2.428134    2.113617
     22          8           0        2.602098   -3.968465    2.377287
     23          7           0       -2.411712   -0.957573   -0.740316
     24          6           0       -2.458179   -2.321663   -1.005427
     25          6           0       -3.859484   -2.736871   -1.175466
     26          6           0       -4.618238   -1.651160   -1.017793
     27          6           0       -3.708626   -0.563278   -0.752238
     28          6           0       -4.262917   -4.155014   -1.473858
     29          6           0       -6.126238   -1.518125   -1.090390
     30          6           0       -6.795504   -1.977217   -2.175694
     31          7           0       -1.908643    1.766540   -0.205741
     32          6           0       -3.294525    1.844915   -0.283766
     33          6           0       -3.736045    3.196704   -0.081252
     34          6           0       -2.606563    3.923564    0.110480
     35          6           0       -1.485549    3.022443    0.037543
     36          6           0       -5.171943    3.626123   -0.106531
     37          6           0       -2.401352    5.384615    0.355273
     38          6           0       -3.468018    6.218686    0.411099
     39          7           0        0.898746    1.249813   -0.137454
     40          6           0        0.960598    2.584794    0.101315
     41          6           0        2.307849    3.023893    0.240636
     42          6           0        3.091120    1.908082    0.071172
     43          6           0        2.199071    0.798753   -0.156548
     44          6           0        2.758169    4.440458    0.504000
     45          6           0        4.593450    1.875612    0.099853
     46          6           0        5.055845    2.223391   -1.367659
     47          6           0        6.536559    2.258469   -1.601950
     48          8           0        7.265699    3.172814   -1.155872
     49          8           0        7.026668    1.325391   -2.297852
     50          8           0       -0.627854    0.797905   -2.584563
     51          1           0        0.159195    0.964561   -3.108375
     52          1           0       -0.378032    0.388338   -1.753032
     53          1           0       -1.970876    1.060948    2.623474
     54          1           0        0.210741   -2.481120    1.892587
     55          1           0       -0.235668   -2.293462    4.370692
     56          1           0       -1.698815    1.005994    5.409035
     57          1           0       -2.499230   -0.525531    5.667558
     58          1           0       -0.799153   -0.355525    6.033488
     59          1           0        4.675685   -1.911598    1.498755
     60          1           0        5.066859   -4.300563    0.488428
     61          1           0        3.535181   -5.127403    0.430281
     62          1           0        4.239406   -2.491992   -0.884247
     63          1           0        3.803226   -3.976880   -1.679921
     64          1           0        7.831249    3.669571   -1.751678
     65          1           0        4.632047    1.497721   -2.030001
     66          1           0        4.656533    3.182696   -1.622971
     67          1           0        4.965791    2.605982    0.787474
     68          1           0        4.936813    0.900001    0.374051
     69          1           0        2.768487    4.988147   -0.415146
     70          1           0        2.082894    4.907666    1.190018
     71          1           0        3.742317    4.429637    0.923804
     72          1           0        0.024830    4.426328    0.374761
     73          1           0        3.632090   -0.695595   -0.349658
     74          1           0        1.774824   -5.472259   -1.932603
     75          1           0        0.970039   -5.703891   -0.399066
     76          1           0        0.033751   -5.362426   -1.834278
     77          1           0       -1.547402   -4.198970   -1.301506
     78          1           0       -3.562544   -4.588943   -2.156561
     79          1           0       -4.273750   -4.721281   -0.566046
     80          1           0       -5.239415   -4.163532   -1.911212
     81          1           0       -5.172347    0.945500   -0.560328
     82          1           0       -5.503240    3.703601   -1.120996
     83          1           0       -5.769347    2.903891    0.409598
     84          1           0       -5.268235    4.577410    0.373760
     85          1           0       -1.412345    5.771383    0.486332
     86          1           0       -3.805138    6.716082   -0.474253
     87          1           0       -3.973086    6.379831    1.340528
     88          1           0       -6.662455   -1.061727   -0.284740
     89          1           0       -6.525360   -2.915459   -2.613443
     90          1           0       -7.594069   -1.401452   -2.594847
 ---------------------------------------------------------------------

 SCF Done:  E(UPBE1PBE) =  -3438.55263432     A.U. after   45 cycles

 Alpha virt. eigenvalues --    0.72076   0.72194   0.72480   0.72806   0.72882
 Alpha virt. eigenvalues --    0.73344   0.73594   0.73950   0.74228   0.74344
 Alpha virt. eigenvalues --    0.75022   0.75223   0.75643   0.75772   0.75841

  Beta  occ. eigenvalues -- -256.33382 -30.06106 -25.89719 -25.89399 -25.88767
  Beta  occ. eigenvalues --  -19.27863 -19.26516 -19.17948 -19.17942 -19.17435
  Beta  occ. eigenvalues --  -14.43394 -14.36401 -14.36321 -14.36125 -14.36106
  Beta  occ. eigenvalues --  -14.35902 -10.35614 -10.35600 -10.26452 -10.25000
  Beta  occ. eigenvalues --  -10.24784 -10.24694 -10.24560 -10.24493 -10.24468
  Beta  occ. eigenvalues --  -10.24149 -10.24087 -10.24006 -10.23983 -10.23945
  Beta  occ. eigenvalues --  -10.23822 -10.23732 -10.23717 -10.22608 -10.22361
  Beta  occ. eigenvalues --  -10.22338 -10.22273 -10.22264 -10.22200 -10.22045
  Beta  occ. eigenvalues --  -10.22039 -10.22018 -10.21992 -10.21915 -10.21802
  Beta  occ. eigenvalues --  -10.21793 -10.21705 -10.21701 -10.21544 -10.21286
  Beta  occ. eigenvalues --  -10.21237 -10.20998 -10.20803 -10.20676  -3.37557
  Beta  occ. eigenvalues --   -2.13563  -2.11999  -2.11729  -1.18013  -1.17275
  Beta  occ. eigenvalues --   -1.05181  -1.02446  -1.02078  -1.01412  -0.97919
  Beta  occ. eigenvalues --   -0.97006  -0.96788  -0.95842  -0.89149  -0.84458
  Beta  occ. eigenvalues --   -0.84203  -0.83429  -0.82760  -0.82517  -0.81133
  Beta  occ. eigenvalues --   -0.80808  -0.80477  -0.79352  -0.78839  -0.77647
  Beta  occ. eigenvalues --   -0.77035  -0.75269  -0.74468  -0.73312  -0.72422
  Beta  occ. eigenvalues --   -0.71767  -0.71651  -0.70189  -0.70054  -0.69428
  Beta  occ. eigenvalues --   -0.67770  -0.66907  -0.65395  -0.65340  -0.63105
  Beta  occ. eigenvalues --   -0.61261  -0.61065  -0.60742  -0.59285  -0.57645
  Beta  occ. eigenvalues --   -0.56643  -0.56596  -0.55495  -0.55248  -0.54659
  Beta  occ. eigenvalues --   -0.54022  -0.53792  -0.52577  -0.52348  -0.51922
  Beta  occ. eigenvalues --   -0.51547  -0.51002  -0.50506  -0.49779  -0.49561
  Beta  occ. eigenvalues --   -0.48803  -0.48394  -0.47872  -0.47046  -0.46797
  Beta  occ. eigenvalues --   -0.46577  -0.45729  -0.45659  -0.45564  -0.45214
  Beta  occ. eigenvalues --   -0.44967  -0.44786  -0.44129  -0.43986  -0.43821
  Beta  occ. eigenvalues --   -0.43734  -0.43583  -0.43169  -0.43033  -0.42953
  Beta  occ. eigenvalues --   -0.42555  -0.42503  -0.42206  -0.42094  -0.42030
  Beta  occ. eigenvalues --   -0.41878  -0.41442  -0.41131  -0.40692  -0.40612
  Beta  occ. eigenvalues --   -0.40195  -0.39763  -0.39610  -0.39292  -0.39035
  Beta  occ. eigenvalues --   -0.38947  -0.38474  -0.38338  -0.37953  -0.37786
  Beta  occ. eigenvalues --   -0.37486  -0.37367  -0.36758  -0.36488  -0.36216
  Beta  occ. eigenvalues --   -0.35853  -0.35411  -0.35204  -0.33003  -0.32688
  Beta  occ. eigenvalues --   -0.32321  -0.32177  -0.31876  -0.31064  -0.30379
  Beta  occ. eigenvalues --   -0.29736  -0.29164  -0.28428  -0.28199  -0.27722
  Beta  occ. eigenvalues --   -0.27290  -0.26523  -0.25664  -0.24540  -0.23671
  Beta  occ. eigenvalues --   -0.23394  -0.22273  -0.22062  -0.19029  -0.18833
  Beta  occ. eigenvalues --   -0.18152
  Beta virt. eigenvalues --   -0.08592  -0.06767  -0.04649  -0.02994  -0.01870
  Beta virt. eigenvalues --   -0.00968  -0.00389  -0.00263   0.00306   0.00438
  Beta virt. eigenvalues --    0.01533   0.03152   0.03573   0.04114   0.04508

 Mulliken charges and spin densities:
               1          2
     1  C   -0.383195   0.000572
     2  C    0.157624   0.002145
     3  N   -0.219699   0.000938
     4  C   -0.191033   0.002976
     5  C    0.026484   0.001700
     6  N   -0.222433   0.029081
     7  Fe  -0.033907   3.794988
     8  C   -0.479974  -0.064294
     9  C   -0.481943  -0.001789
    10  C   -0.505982   0.075098
    11  C   -0.527511  -0.002249
    12  N   -0.043928   0.006616
    13  C    0.327256   0.054849
    14  C    0.010384  -0.013582
    15  C   -0.033918   0.027810
    16  C    0.299000   0.010794
    17  C   -0.431096  -0.001256
    18  C   -0.443466   0.001670
    19  C   -0.188346  -0.001235
    20  C    0.299938   0.000742
    21  O   -0.262221  -0.000071
    22  O   -0.417981   0.000008
    23  N   -0.050119   0.030533
    24  C    0.254802   0.008462
    25  C   -0.062114  -0.001269
    26  C   -0.001426   0.014766
    27  C    0.289201  -0.022296
    28  C   -0.373640   0.000856
    29  C   -0.242303  -0.004888
    30  C   -0.254837   0.007771
    31  N   -0.066626   0.070957
    32  C    0.312542  -0.065396
    33  C   -0.121652   0.281773
    34  C   -0.027227  -0.262850
    35  C    0.302518   0.023777
    36  C   -0.376998  -0.018165
    37  C   -0.101839   0.910754
    38  C   -0.342446  -1.118275
    39  N   -0.056990  -0.000523
    40  C    0.321515  -0.010528
    41  C   -0.094194   0.040634
    42  C    0.009661  -0.017257
    43  C    0.228290   0.056293
    44  C   -0.409920  -0.002135
    45  C   -0.340511   0.001597
    46  C   -0.127188  -0.000783
    47  C    0.253867  -0.000105
    48  O   -0.345214  -0.000008
    49  O   -0.375778  -0.000053
    50  O   -0.508194   0.051056
    51  H    0.316109   0.010203
    52  H    0.244159  -0.019853
    53  H    0.139634   0.001071
    54  H    0.194611   0.000364
    55  H    0.234217   0.001046
    56  H    0.143500   0.000003
    57  H    0.141535   0.000040
    58  H    0.127103   0.000073
    59  H    0.337301  -0.000086
    60  H    0.131686  -0.000057
    61  H    0.129561   0.000075
    62  H    0.160460  -0.000251
    63  H    0.134205   0.000101
    64  H    0.357914  -0.000003
    65  H    0.143398   0.000088
    66  H    0.115681   0.000011
    67  H    0.134577  -0.000078
    68  H    0.097124  -0.000240
    69  H    0.144084   0.001784
    70  H    0.137718   0.000622
    71  H    0.127900   0.000604
    72  H    0.081915  -0.003994
    73  H    0.046813   0.002633
    74  H    0.129128   0.000649
    75  H    0.157122   0.001335
    76  H    0.129366   0.000215
    77  H    0.106598  -0.000334
    78  H    0.130661  -0.000076
    79  H    0.143206  -0.000252
    80  H    0.110105   0.000300
    81  H    0.116366  -0.004362
    82  H    0.143618   0.013911
    83  H    0.127825   0.004943
    84  H    0.139250   0.003668
    85  H    0.122995  -0.095798
    86  H    0.140141   0.090525
    87  H    0.140033   0.091106
    88  H    0.136813   0.000495
    89  H    0.123711  -0.000399
    90  H    0.134620  -0.000292
 Sum of Mulliken charges =  -0.00000   4.00000

 Dipole moment (field-independent basis, Debye):
    X=              1.8448    Y=              1.7128    Z=              2.5694  Tot=              3.5970
 Quadrupole moment (field-independent basis, Debye-Ang):
   XX=           -272.8732   YY=           -268.4992   ZZ=           -292.1774
   XY=             14.5058   XZ=             -5.2303   YZ=              3.2345

 Summary of Natural Population Analysis:

                                       Natural Population
                Natural  -----------------------------------------------
    Atom  No    Charge         Core      Valence    Rydberg      Total
 -----------------------------------------------------------------------
      C    1   -0.31925      0.99970     2.31639    0.00317     3.31925
      C    2    0.04767      0.99955     1.94319    0.00959     2.95233
      N    3   -0.24031      0.99968     2.73034    0.01030     3.74031
      C    4   -0.04309      0.99944     2.03398    0.00966     3.04309
      C    5    0.09426      0.99968     1.89606    0.01000     2.90574
      N    6   -0.19232      0.99972     2.67110    0.02150     3.69232
     Fe    7    2.15464      8.98980     1.83457    0.02099    10.84536
      C    8   -0.14318      0.99946     2.13494    0.00878     3.14318
      C    9   -0.10761      0.99948     2.10041    0.00772     3.10761
      C   10   -0.07661      0.99951     2.06965    0.00744     3.07661
      C   11   -0.10784      0.99951     2.10058    0.00775     3.10784
      N   12   -0.22099      0.99971     2.69949    0.02180     3.72099
      C   13    0.09876      0.99953     1.89058    0.01114     2.90124
      C   14   -0.03579      0.99947     2.02658    0.00974     3.03579
      C   15    0.00823      0.99944     1.98380    0.00853     2.99177
      C   16    0.06633      0.99948     1.92371    0.01048     2.93367
      C   17   -0.31954      0.99970     2.31609    0.00376     3.31954
      C   18   -0.20868      0.99964     2.20142    0.00762     3.20868
      C   19   -0.25376      0.99963     2.24600    0.00813     3.25376
      C   20    0.38436      0.99973     1.59889    0.01702     2.61564
      O   21   -0.31083      0.99980     3.29507    0.01596     4.31083
      O   22   -0.30820      0.99990     3.29731    0.01099     4.30820
      N   23   -0.19511      0.99970     2.67733    0.01808     3.69511
      C   24    0.08212      0.99956     1.90863    0.00969     2.91788
      C   25   -0.00325      0.99941     1.99544    0.00840     3.00325
      C   26   -0.04311      0.99933     2.03287    0.01091     3.04311
      C   27    0.08321      0.99953     1.90695    0.01031     2.91679
      C   28   -0.31763      0.99970     2.31397    0.00396     3.31763
      C   29   -0.09569      0.99962     2.08647    0.00960     3.09569
      C   30   -0.18605      0.99964     2.17788    0.00854     3.18605
      N   31   -0.17621      0.99970     2.65569    0.02082     3.67621
      C   32    0.04933      0.99953     1.94095    0.01019     2.95067
      C   33    0.12099      0.99942     1.87072    0.00887     2.87901
      C   34   -0.14424      0.99945     2.13453    0.01026     3.14424
      C   35    0.08748      0.99954     1.90261    0.01037     2.91252
      C   36   -0.33231      0.99970     2.32899    0.00363     3.33231
      C   37    0.28740      0.99961     1.70412    0.00887     2.71260
      C   38   -0.67578      0.99966     2.66425    0.01187     3.67578
      N   39   -0.22119      0.99969     2.70262    0.01887     3.72119
      C   40    0.07018      0.99951     1.92032    0.00999     2.92982
      C   41    0.00756      0.99944     1.98441    0.00858     2.99244
      C   42   -0.02727      0.99946     2.01841    0.00940     3.02727
      C   43    0.09514      0.99950     1.89481    0.01056     2.90486
      C   44   -0.32078      0.99970     2.31730    0.00378     3.32078
      C   45   -0.20343      0.99966     2.19707    0.00671     3.20343
      C   46   -0.24584      0.99961     2.23770    0.00852     3.24584
      C   47    0.37787      0.99974     1.60428    0.01811     2.62213
      O   48   -0.33730      0.99980     3.32333    0.01417     4.33730
      O   49   -0.29881      0.99990     3.28743    0.01148     4.29881
      O   50   -0.38160      0.99993     3.37334    0.00833     4.38160
      H   51    0.24096      0.00000     0.25751    0.00153     0.25904
      H   52    0.18245      0.00000     0.31380    0.00375     0.31755
      H   53    0.11171      0.00000     0.38758    0.00070     0.38829
      H   54    0.11664      0.00000     0.38238    0.00098     0.38336
      H   55    0.20823      0.00000     0.29089    0.00088     0.29177
      H   56    0.11590      0.00000     0.38360    0.00050     0.38410
      H   57    0.11021      0.00000     0.38905    0.00074     0.38979
      H   58    0.10815      0.00000     0.39116    0.00069     0.39185
      H   59    0.25064      0.00000     0.24836    0.00100     0.24936
      H   60    0.10824      0.00000     0.39098    0.00078     0.39176
      H   61    0.12036      0.00000     0.37894    0.00070     0.37964
      H   62    0.10247      0.00000     0.39670    0.00083     0.39753
      H   63    0.11559      0.00000     0.38353    0.00088     0.38441
      H   64    0.25957      0.00000     0.23917    0.00126     0.24043
      H   65    0.12134      0.00000     0.37800    0.00065     0.37866
      H   66    0.11135      0.00000     0.38792    0.00072     0.38865
      H   67    0.11062      0.00000     0.38851    0.00087     0.38938
      H   68    0.10389      0.00000     0.39523    0.00088     0.39611
      H   69    0.11168      0.00000     0.38749    0.00084     0.38832
      H   70    0.11215      0.00000     0.38712    0.00073     0.38785
      H   71    0.10848      0.00000     0.39073    0.00080     0.39152
      H   72    0.10264      0.00000     0.39546    0.00190     0.39736
      H   73    0.09684      0.00000     0.40140    0.00176     0.40316
      H   74    0.10853      0.00000     0.39068    0.00079     0.39147
      H   75    0.11464      0.00000     0.38450    0.00086     0.38536
      H   76    0.10914      0.00000     0.39020    0.00066     0.39086
      H   77    0.10696      0.00000     0.39165    0.00140     0.39304
      H   78    0.10962      0.00000     0.38966    0.00072     0.39038
      H   79    0.11219      0.00000     0.38700    0.00080     0.38781
      H   80    0.10848      0.00000     0.39074    0.00079     0.39152
      H   81    0.10728      0.00000     0.39129    0.00143     0.39272
      H   82    0.11942      0.00000     0.37986    0.00072     0.38058
      H   83    0.11182      0.00000     0.38749    0.00069     0.38818
      H   84    0.11662      0.00000     0.38243    0.00095     0.38338
      H   85    0.06144      0.00000     0.43741    0.00115     0.43856
      H   86    0.13024      0.00000     0.36901    0.00075     0.36976
      H   87    0.12930      0.00000     0.36994    0.00076     0.37070
      H   88    0.10597      0.00000     0.39311    0.00093     0.39403
      H   89    0.09486      0.00000     0.40403    0.00110     0.40514
      H   90    0.10146      0.00000     0.39772    0.00082     0.39854
 =======================================================================
   * Total *    2.00000     57.97058   127.45477    0.57465   186.00000

 Normal termination of Gaussian 16 at Sat Oct  1 03:34:54 2022.
