 Gaussian 16, Revision A.03,
 Gaussian 16:  ES64L-G16RevA.03 25-Dec-2016

 ----------------------------------------------------------------------
 # PBE1PBE/def2TZVP empiricaldispersion=GD3BJ scf=maxcycle=999 geom=che
 ck pop=nbo
 ----------------------------------------------------------------------

 ----------
 1jp9_III_H
 ----------
 Structure from the checkpoint file:  "1jp9_III_H.chk"
 Charge =  1 Multiplicity = 6

                         Standard orientation:
 ---------------------------------------------------------------------
 Center     Atomic      Atomic             Coordinates (Angstroms)
 Number     Number       Type             X           Y           Z
 ---------------------------------------------------------------------
      1          6           0       -1.395105    0.237801    5.325101
      2          6           0       -1.115773   -0.209118    3.926321
      3          7           0       -0.355513   -1.322749    3.644721
      4          6           0       -1.442763    0.336271    2.731444
      5          6           0       -0.222377   -1.442615    2.336770
      6          7           0       -0.872166   -0.448993    1.759017
      7         26           0       -0.786576    0.105819   -0.393746
      8          6           0        2.565034   -0.456715   -0.401142
      9          6           0       -1.329263   -3.231035   -0.981568
     10          6           0       -4.153758    0.650501   -0.492792
     11          6           0       -0.234031    3.379598    0.067908
     12          7           0        0.367113   -1.509906   -0.629387
     13          6           0        1.742071   -1.562904   -0.598045
     14          6           0        2.211031   -2.939568   -0.808791
     15          6           0        1.088196   -3.694995   -0.972063
     16          6           0       -0.029732   -2.825295   -0.864554
     17          6           0        1.002304   -5.182531   -1.222759
     18          6           0        3.634099   -3.361492   -0.827449
     19          6           0        4.051759   -4.076796    0.499890
     20          6           0        3.820045   -3.196221    1.695908
     21          8           0        4.468979   -2.151005    1.857717
     22          8           0        2.930600   -3.567113    2.525546
     23          7           0       -2.416450   -1.028173   -0.657083
     24          6           0       -2.441838   -2.402602   -0.888289
     25          6           0       -3.835030   -2.853940   -1.026783
     26          6           0       -4.613287   -1.789311   -0.889544
     27          6           0       -3.722504   -0.663661   -0.667420
     28          6           0       -4.214727   -4.285441   -1.286181
     29          6           0       -6.118641   -1.711723   -0.955716
     30          6           0       -6.789040   -2.373053   -1.930280
     31          7           0       -1.959044    1.717843   -0.226045
     32          6           0       -3.345937    1.764152   -0.294906
     33          6           0       -3.813284    3.113437   -0.151516
     34          6           0       -2.703750    3.868980   -0.001809
     35          6           0       -1.561623    2.984289   -0.041771
     36          6           0       -5.260287    3.514120   -0.190806
     37          6           0       -2.527577    5.348692    0.169132
     38          6           0       -3.611236    6.162226    0.189446
     39          7           0        0.856109    1.260233   -0.184741
     40          6           0        0.890324    2.601096    0.003905
     41          6           0        2.222846    3.075334    0.104050
     42          6           0        3.031684    1.969985   -0.038249
     43          6           0        2.161108    0.836073   -0.217006
     44          6           0        2.630054    4.504737    0.310798
     45          6           0        4.531444    1.961309   -0.021945
     46          6           0        5.057331    2.147052   -1.479451
     47          6           0        6.548308    2.148766   -1.587869
     48          8           0        7.299647    2.536633   -0.659147
     49          8           0        7.025969    1.736381   -2.678535
     50          8           0       -0.761310    0.686228   -2.458533
     51          1           0        2.015113   -3.641731    2.246411
     52          1           0        5.089999   -4.330404    0.448497
     53          1           0        3.477814   -4.973174    0.609398
     54          1           0        4.250705   -2.498016   -0.965671
     55          1           0        3.786781   -4.032627   -1.646696
     56          1           0        8.102206    3.022678   -0.862271
     57          1           0        4.672614    1.352691   -2.084334
     58          1           0        4.686981    3.076189   -1.859510
     59          1           0        4.887631    2.761898    0.592130
     60          1           0        4.880032    1.028037    0.368427
     61          1           0        2.592098    5.025098   -0.623378
     62          1           0        1.961481    4.969190    1.005199
     63          1           0        3.626945    4.539167    0.697996
     64          1           0        1.805627   -5.483411   -1.862324
     65          1           0        1.072292   -5.705713   -0.292016
     66          1           0        0.068169   -5.411883   -1.691469
     67          1           0        3.619704   -0.637013   -0.393211
     68          1           0       -1.504967   -4.271398   -1.159537
     69          1           0       -0.069536    4.425589    0.222002
     70          1           0       -5.210322    0.818318   -0.513088
     71          1           0       -3.528987   -4.715095   -1.986223
     72          1           0       -4.179692   -4.835535   -0.369082
     73          1           0       -5.205712   -4.324423   -1.687837
     74          1           0       -6.656880   -1.134546   -0.233175
     75          1           0       -6.333630   -2.520918   -2.887170
     76          1           0       -7.773764   -2.747340   -1.742859
     77          1           0       -5.601840    3.518194   -1.204820
     78          1           0       -5.839108    2.816519    0.377716
     79          1           0       -5.370754    4.493094    0.226695
     80          1           0       -1.546296    5.761939    0.275036
     81          1           0       -3.976246    6.589962   -0.720889
     82          1           0       -4.101829    6.376818    1.115820
     83          1           0        0.319932   -2.213891    1.830869
     84          1           0        0.034621   -1.943452    4.324812
     85          1           0       -2.034315    1.213836    2.573818
     86          1           0       -1.510781    1.301373    5.343326
     87          1           0       -2.294454   -0.224823    5.674458
     88          1           0       -0.580033   -0.043232    5.958803
     89          1           0       -0.000853    0.841645   -3.023466
     90          1           0       -0.467646    0.325895   -1.618580
 ---------------------------------------------------------------------

 SCF Done:  E(UPBE1PBE) =  -3438.33671011     A.U. after   65 cycles

 Alpha virt. eigenvalues --    0.60484   0.60687   0.60932   0.61270   0.61550
 Alpha virt. eigenvalues --    0.61824   0.61941   0.62261   0.62562   0.62809
 Alpha virt. eigenvalues --    0.63063   0.63282   0.63369   0.63739   0.64026

  Beta  occ. eigenvalues -- -256.55279 -30.29763 -26.13183 -26.13077 -26.11939
  Beta  occ. eigenvalues --  -19.34273 -19.33164 -19.32224 -19.27078 -19.23919
  Beta  occ. eigenvalues --  -14.55431 -14.50955 -14.50499 -14.50349 -14.50076
  Beta  occ. eigenvalues --  -14.50024 -10.43982 -10.42072 -10.39437 -10.36936
  Beta  occ. eigenvalues --  -10.36622 -10.36599 -10.36446 -10.36399 -10.36349
  Beta  occ. eigenvalues --  -10.36246 -10.36077 -10.35797 -10.34280 -10.33733
  Beta  occ. eigenvalues --  -10.33656 -10.33634 -10.33261 -10.33054 -10.32978
  Beta  occ. eigenvalues --  -10.32899 -10.32864 -10.32813 -10.32706 -10.32692
  Beta  occ. eigenvalues --  -10.32540 -10.32444 -10.32435 -10.32262 -10.32113
  Beta  occ. eigenvalues --  -10.31845 -10.31525 -10.31421 -10.31355 -10.30633
  Beta  occ. eigenvalues --  -10.30555 -10.30113 -10.29951 -10.29635  -3.60706
  Beta  occ. eigenvalues --   -2.36176  -2.36139  -2.34265  -1.24566  -1.23511
  Beta  occ. eigenvalues --   -1.17516  -1.16831  -1.11909  -1.10584  -1.09618
  Beta  occ. eigenvalues --   -1.09424  -1.08452  -1.08342  -1.01741  -0.95132
  Beta  occ. eigenvalues --   -0.94587  -0.93704  -0.93442  -0.92918  -0.92347
  Beta  occ. eigenvalues --   -0.92189  -0.91715  -0.89412  -0.88600  -0.87144
  Beta  occ. eigenvalues --   -0.86737  -0.85999  -0.84260  -0.83150  -0.82738
  Beta  occ. eigenvalues --   -0.82290  -0.81753  -0.80334  -0.79386  -0.78301
  Beta  occ. eigenvalues --   -0.76931  -0.76627  -0.75434  -0.75225  -0.74160
  Beta  occ. eigenvalues --   -0.73148  -0.71442  -0.70913  -0.70540  -0.69910
  Beta  occ. eigenvalues --   -0.69394  -0.67561  -0.67012  -0.65948  -0.64951
  Beta  occ. eigenvalues --   -0.64536  -0.63523  -0.63328  -0.63074  -0.62068
  Beta  occ. eigenvalues --   -0.60829  -0.60168  -0.59519  -0.59005  -0.58825
  Beta  occ. eigenvalues --   -0.58521  -0.58386  -0.58040  -0.57309  -0.56852
  Beta  occ. eigenvalues --   -0.56447  -0.56172  -0.56069  -0.55843  -0.55348
  Beta  occ. eigenvalues --   -0.55043  -0.54689  -0.54383  -0.54214  -0.54035
  Beta  occ. eigenvalues --   -0.53775  -0.53363  -0.53167  -0.53047  -0.52833
  Beta  occ. eigenvalues --   -0.52693  -0.52553  -0.52308  -0.52149  -0.51962
  Beta  occ. eigenvalues --   -0.51593  -0.51509  -0.51267  -0.51196  -0.50973
  Beta  occ. eigenvalues --   -0.50602  -0.50202  -0.49979  -0.49904  -0.49789
  Beta  occ. eigenvalues --   -0.49089  -0.49053  -0.48556  -0.48463  -0.47938
  Beta  occ. eigenvalues --   -0.47833  -0.47205  -0.47026  -0.46527  -0.46152
  Beta  occ. eigenvalues --   -0.46012  -0.45429  -0.44626  -0.44456  -0.44171
  Beta  occ. eigenvalues --   -0.44084  -0.43799  -0.43632  -0.43133  -0.42001
  Beta  occ. eigenvalues --   -0.41763  -0.40420  -0.39585  -0.39292  -0.38784
  Beta  occ. eigenvalues --   -0.37682  -0.36932  -0.36870  -0.35983  -0.35502
  Beta  occ. eigenvalues --   -0.35114  -0.33484  -0.33283  -0.30745  -0.30132
  Beta virt. eigenvalues --   -0.22043  -0.21924  -0.18568  -0.18175  -0.17298
  Beta virt. eigenvalues --   -0.14903  -0.13903  -0.13069  -0.11702  -0.10461
  Beta virt. eigenvalues --   -0.09320  -0.08604  -0.08314  -0.07220  -0.06412

 Mulliken charges and spin densities:
               1          2
     1  C   -0.368024   0.001246
     2  C    0.155965   0.005885
     3  N   -0.201355   0.002511
     4  C   -0.191165  -0.001285
     5  C    0.106556   0.002588
     6  N   -0.156473   0.080619
     7  Fe  -0.236608   2.889178
     8  C   -0.403209  -0.062728
     9  C   -0.474878   0.010140
    10  C   -0.473510   0.088722
    11  C   -0.487934   0.007332
    12  N    0.014324  -0.059184
    13  C    0.279374   0.061959
    14  C   -0.158754  -0.003486
    15  C   -0.078660   0.036375
    16  C    0.338155   0.008112
    17  C   -0.385103  -0.002849
    18  C   -0.232129  -0.000911
    19  C   -0.223910  -0.000277
    20  C    0.305130   0.000862
    21  O   -0.331858  -0.000031
    22  O   -0.340378  -0.000048
    23  N    0.045807  -0.026249
    24  C    0.236100   0.006924
    25  C   -0.079265  -0.007215
    26  C    0.021506   0.025880
    27  C    0.277323  -0.039573
    28  C   -0.371821   0.000542
    29  C   -0.233582  -0.009275
    30  C   -0.292824   0.009702
    31  N    0.013548  -0.016455
    32  C    0.303276  -0.075865
    33  C   -0.119941   0.277876
    34  C   -0.029556  -0.139859
    35  C    0.283031   0.035673
    36  C   -0.365412  -0.012247
    37  C   -0.080925   0.706484
    38  C   -0.353285   1.002605
    39  N    0.030228  -0.062123
    40  C    0.307601  -0.001209
    41  C   -0.096796   0.042845
    42  C    0.077455  -0.005458
    43  C    0.175662   0.060710
    44  C   -0.390766  -0.003161
    45  C   -0.399444  -0.001087
    46  C   -0.144620   0.000633
    47  C    0.248798   0.000087
    48  O   -0.331429  -0.000008
    49  O   -0.366004   0.000345
    50  O   -0.416444   0.133916
    51  H    0.333367   0.000049
    52  H    0.151693   0.000046
    53  H    0.130234   0.000030
    54  H    0.136804  -0.000202
    55  H    0.141902   0.000195
    56  H    0.360821   0.000003
    57  H    0.140044  -0.000016
    58  H    0.135974  -0.000046
    59  H    0.136223  -0.000233
    60  H    0.165565  -0.000030
    61  H    0.162047   0.002588
    62  H    0.141767   0.000983
    63  H    0.143264   0.000162
    64  H    0.155018   0.000528
    65  H    0.147050   0.002210
    66  H    0.143147   0.000320
    67  H    0.138265   0.002401
    68  H    0.128791  -0.000654
    69  H    0.103499   0.001161
    70  H    0.136834  -0.003633
    71  H    0.136564  -0.000296
    72  H    0.150968  -0.000038
    73  H    0.160926  -0.000270
    74  H    0.140301   0.001380
    75  H    0.162061  -0.000514
    76  H    0.153946  -0.000466
    77  H    0.162033   0.014533
    78  H    0.136347   0.009487
    79  H    0.155591  -0.002347
    80  H    0.141726   0.017915
    81  H    0.166918   0.006555
    82  H    0.164525   0.007798
    83  H    0.085583   0.000912
    84  H    0.246767   0.001513
    85  H    0.157422   0.001510
    86  H    0.153891   0.000004
    87  H    0.159038   0.000139
    88  H    0.141657   0.000261
    89  H    0.344763   0.009105
    90  H    0.242884  -0.042212
 Sum of Mulliken charges =   1.00000   5.00000

 Dipole moment (field-independent basis, Debye):
    X=             -5.1916    Y=             -0.7859    Z=              4.5934  Tot=              6.9764
 Quadrupole moment (field-independent basis, Debye-Ang):
   XX=           -237.0919   YY=           -199.1515   ZZ=           -271.0408
   XY=              6.5531   XZ=              2.5431   YZ=              4.4578

 Summary of Natural Population Analysis:

                                       Natural Population
                Natural  -----------------------------------------------
    Atom  No    Charge         Core      Valence    Rydberg      Total
 -----------------------------------------------------------------------
      C    1   -0.32135      0.99969     2.31846    0.00320     3.32135
      C    2    0.06571      0.99955     1.92561    0.00913     2.93429
      N    3   -0.23376      0.99968     2.72401    0.01007     3.73376
      C    4   -0.04162      0.99943     2.03313    0.00906     3.04162
      C    5    0.10069      0.99966     1.88998    0.00967     2.89931
      N    6   -0.14344      0.99969     2.62370    0.02005     3.64344
     Fe    7    1.64901      8.98676     2.34178    0.02244    11.35099
      C    8   -0.13409      0.99948     2.12607    0.00854     3.13409
      C    9   -0.10865      0.99947     2.10106    0.00812     3.10865
      C   10   -0.07275      0.99951     2.06601    0.00723     3.07275
      C   11   -0.10922      0.99950     2.10184    0.00788     3.10922
      N   12   -0.23289      0.99968     2.71106    0.02215     3.73289
      C   13    0.10452      0.99954     1.88514    0.01079     2.89548
      C   14   -0.01443      0.99946     2.00560    0.00937     3.01443
      C   15    0.00726      0.99942     1.98446    0.00885     2.99274
      C   16    0.07033      0.99946     1.91969    0.01051     2.92967
      C   17   -0.32007      0.99970     2.31406    0.00631     3.32007
      C   18   -0.21047      0.99964     2.20358    0.00725     3.21047
      C   19   -0.25308      0.99962     2.24543    0.00802     3.25308
      C   20    0.38621      0.99973     1.59680    0.01726     2.61379
      O   21   -0.27863      0.99989     3.26659    0.01215     4.27863
      O   22   -0.34040      0.99981     3.32586    0.01473     4.34040
      N   23   -0.19535      0.99967     2.67493    0.02075     3.69535
      C   24    0.08610      0.99954     1.90450    0.00986     2.91390
      C   25    0.00722      0.99940     1.98464    0.00874     2.99278
      C   26   -0.02526      0.99929     2.01541    0.01056     3.02526
      C   27    0.08039      0.99954     1.91001    0.01006     2.91961
      C   28   -0.32274      0.99969     2.31682    0.00623     3.32274
      C   29   -0.11307      0.99961     2.10433    0.00912     3.11307
      C   30   -0.17425      0.99964     2.16653    0.00808     3.17425
      N   31   -0.19622      0.99966     2.67503    0.02153     3.69622
      C   32    0.05317      0.99952     1.93760    0.00972     2.94683
      C   33    0.11940      0.99941     1.87306    0.00812     2.88060
      C   34   -0.08584      0.99938     2.07686    0.00960     3.08584
      C   35    0.11735      0.99953     1.87315    0.00997     2.88265
      C   36   -0.31966      0.99969     2.31396    0.00600     3.31966
      C   37    0.26120      0.99961     1.73161    0.00758     2.73880
      C   38    0.30172      0.99964     1.69107    0.00757     2.69828
      N   39   -0.22380      0.99966     2.70303    0.02112     3.72380
      C   40    0.08348      0.99949     1.90690    0.01013     2.91652
      C   41    0.01627      0.99946     1.97624    0.00803     2.98373
      C   42    0.00541      0.99948     1.98613    0.00898     2.99459
      C   43    0.09871      0.99950     1.89145    0.01035     2.90129
      C   44   -0.32244      0.99970     2.31655    0.00620     3.32244
      C   45   -0.21782      0.99966     2.21131    0.00685     3.21782
      C   46   -0.24203      0.99962     2.23408    0.00834     3.24203
      C   47    0.37624      0.99974     1.60622    0.01780     2.62376
      O   48   -0.32885      0.99981     3.31560    0.01344     4.32885
      O   49   -0.29617      0.99990     3.28453    0.01174     4.29617
      O   50   -0.29027      0.99993     3.28343    0.00691     4.29027
      H   51    0.25150      0.00000     0.24748    0.00102     0.24850
      H   52    0.12770      0.00000     0.37172    0.00058     0.37230
      H   53    0.10554      0.00000     0.39374    0.00071     0.39446
      H   54    0.11699      0.00000     0.38224    0.00077     0.38301
      H   55    0.11802      0.00000     0.38119    0.00078     0.38198
      H   56    0.26178      0.00000     0.23696    0.00126     0.23822
      H   57    0.12020      0.00000     0.37914    0.00066     0.37980
      H   58    0.11896      0.00000     0.38042    0.00061     0.38104
      H   59    0.11585      0.00000     0.38334    0.00081     0.38415
      H   60    0.11566      0.00000     0.38342    0.00092     0.38434
      H   61    0.11827      0.00000     0.38108    0.00065     0.38173
      H   62    0.11453      0.00000     0.38489    0.00058     0.38547
      H   63    0.11559      0.00000     0.38377    0.00064     0.38441
      H   64    0.11758      0.00000     0.38177    0.00066     0.38242
      H   65    0.11439      0.00000     0.38494    0.00067     0.38561
      H   66    0.11360      0.00000     0.38591    0.00049     0.38640
      H   67    0.12047      0.00000     0.37834    0.00119     0.37953
      H   68    0.11454      0.00000     0.38411    0.00135     0.38546
      H   69    0.11064      0.00000     0.38809    0.00127     0.38936
      H   70    0.11432      0.00000     0.38461    0.00107     0.38568
      H   71    0.11236      0.00000     0.38710    0.00054     0.38764
      H   72    0.11583      0.00000     0.38349    0.00068     0.38417
      H   73    0.12189      0.00000     0.37753    0.00058     0.37811
      H   74    0.10995      0.00000     0.38920    0.00085     0.39005
      H   75    0.10237      0.00000     0.39678    0.00085     0.39763
      H   76    0.10545      0.00000     0.39389    0.00065     0.39455
      H   77    0.12444      0.00000     0.37501    0.00056     0.37556
      H   78    0.11680      0.00000     0.38269    0.00050     0.38320
      H   79    0.11829      0.00000     0.38122    0.00049     0.38171
      H   80    0.12077      0.00000     0.37869    0.00054     0.37923
      H   81    0.11140      0.00000     0.38808    0.00051     0.38860
      H   82    0.10996      0.00000     0.38952    0.00052     0.39004
      H   83    0.10374      0.00000     0.39497    0.00129     0.39626
      H   84    0.21316      0.00000     0.28602    0.00082     0.28684
      H   85    0.11731      0.00000     0.38204    0.00065     0.38269
      H   86    0.12059      0.00000     0.37893    0.00048     0.37941
      H   87    0.11741      0.00000     0.38196    0.00063     0.38259
      H   88    0.11397      0.00000     0.38543    0.00061     0.38603
      H   89    0.25035      0.00000     0.24823    0.00142     0.24965
      H   90    0.16604      0.00000     0.33023    0.00373     0.33396
 =======================================================================
   * Total *    3.00000     57.96715   126.46309    0.56976   185.00000

 Normal termination of Gaussian 16 at Fri Dec 30 13:55:16 2022.
