 Gaussian 16, Revision A.03,
 Gaussian 16:  ES64L-G16RevA.03 25-Dec-2016

 ----------------------------------------------------------------------
 # PBE1PBE/def2TZVP empiricaldispersion=GD3BJ scf=maxcycle=999 geom=che
 ck pop=nbo
 ----------------------------------------------------------------------

 ----------
 1mz4_III_D
 ----------
 Structure from the checkpoint file:  "1mz4_III_D.chk"
 Charge =  1 Multiplicity = 2

                         Standard orientation:
 ---------------------------------------------------------------------
 Center     Atomic      Atomic             Coordinates (Angstroms)
 Number     Number       Type             X           Y           Z
 ---------------------------------------------------------------------
      1          6           0        2.652192   -1.957398    4.905315
      2          6           0        1.789343   -1.366360    3.832160
      3          7           0        0.441607   -1.127899    4.000253
      4          6           0        2.074424   -1.016065    2.555177
      5          6           0       -0.066117   -0.662861    2.872670
      6          7           0        0.905473   -0.585140    1.979037
      7          6           0       -0.055051    2.968785   -4.406324
      8          6           0        0.293411    1.782913   -3.561356
      9          7           0        1.249874    0.862793   -3.931495
     10          6           0       -0.092036    1.446560   -2.308206
     11          6           0        1.443232    0.011381   -2.936084
     12          7           0        0.644178    0.345284   -1.938674
     13         26           0        0.791272   -0.077071    0.030868
     14          6           0       -2.649261   -0.034497    0.169966
     15          6           0        0.725411   -3.410312   -0.799558
     16          6           0        4.249295   -0.088037   -0.242435
     17          6           0        0.876277    3.175938    1.054961
     18          7           0       -0.647628   -1.420887   -0.225797
     19          6           0       -2.020364   -1.237068   -0.128632
     20          6           0       -2.731694   -2.463914   -0.432595
     21          6           0       -1.791109   -3.393654   -0.732185
     22          6           0       -0.501005   -2.761774   -0.575488
     23          6           0       -2.055322   -4.824121   -1.201637
     24          6           0       -4.253555   -2.697707   -0.428760
     25          6           0       -4.713412   -3.029972    0.990584
     26          6           0       -6.162927   -3.484724    1.055693
     27          8           0       -6.637765   -3.806183    2.167351
     28          8           0       -6.827140   -3.523508    0.001140
     29          7           0        2.175277   -1.431872   -0.433122
     30          6           0        1.974124   -2.780763   -0.723170
     31          6           0        3.228971   -3.442531   -1.000435
     32          6           0        4.233911   -2.516470   -0.914547
     33          6           0        3.570057   -1.267481   -0.536002
     34          6           0        3.395761   -4.934778   -1.271595
     35          6           0        5.614432   -2.740927   -1.115335
     36          6           0        6.122297   -3.177362   -2.346920
     37          7           0        2.237811    1.245441    0.305584
     38          6           0        3.619158    1.091168    0.152940
     39          6           0        4.331136    2.286766    0.563021
     40          6           0        3.396461    3.199510    0.939554
     41          6           0        2.094374    2.552540    0.770617
     42          6           0        5.853329    2.447297    0.667483
     43          6           0        3.627666    4.458675    1.520303
     44          6           0        4.272384    5.471069    0.828936
     45          7           0       -0.583293    1.266834    0.519718
     46          6           0       -0.373569    2.585845    0.911266
     47          6           0       -1.630891    3.294715    1.052810
     48          6           0       -2.619234    2.406522    0.763364
     49          6           0       -1.975535    1.142253    0.472328
     50          6           0       -1.814787    4.747132    1.486482
     51          6           0       -4.107158    2.694720    0.611916
     52          6           0       -4.369233    3.222769   -0.792767
     53          6           0       -5.839362    3.463725   -1.063135
     54          8           0       -6.527767    2.550615   -1.575160
     55          8           0       -6.306151    4.574090   -0.750179
     56          1           0       -0.435413    2.635463   -5.349256
     57          1           0       -0.799081    3.555037   -3.908703
     58          1           0        0.820313    3.563345   -4.564875
     59          1           0       -0.831187    1.944324   -1.715933
     60          1           0        1.722983    0.841416   -4.812240
     61          1           0        2.130627   -0.808606   -2.939110
     62          1           0        3.660597   -2.026828    4.554319
     63          1           0        2.619001   -1.333249    5.773782
     64          1           0        2.293094   -2.934148    5.154128
     65          1           0       -0.071653   -1.282865    4.844379
     66          1           0       -1.089178   -0.394796    2.710228
     67          1           0        3.033293   -1.066015    2.082975
     68          1           0        6.107721   -4.246752   -2.379950
     69          1           0        5.518679   -2.787773   -3.139868
     70          1           0        7.128131   -2.830679   -2.460979
     71          1           0        3.620992    5.857844    0.073295
     72          1           0        4.535984    6.254882    1.507944
     73          1           0        5.158214    5.082543    0.371494
     74          1           0        3.297233    4.639601    2.521792
     75          1           0        6.291617   -2.572965   -0.304095
     76          1           0        6.217721    2.962870   -0.196405
     77          1           0        6.093264    3.009275    1.545841
     78          1           0        6.310633    1.481707    0.725870
     79          1           0        5.316103   -0.086535   -0.325000
     80          1           0        3.963307   -5.073136   -2.168059
     81          1           0        3.908451   -5.391308   -0.450845
     82          1           0        2.432489   -5.386342   -1.386034
     83          1           0        0.703795   -4.451749   -1.044184
     84          1           0       -1.522290   -5.005059   -2.111603
     85          1           0       -1.724947   -5.512318   -0.451878
     86          1           0       -3.103680   -4.956334   -1.370052
     87          1           0        0.908550    4.184641    1.410457
     88          1           0       -3.719050   -0.013489    0.166826
     89          1           0       -2.344054    5.282178    0.725889
     90          1           0       -2.372757    4.778999    2.398926
     91          1           0       -0.856417    5.198030    1.638535
     92          1           0       -4.000073    2.512308   -1.502602
     93          1           0       -3.839943    4.144073   -0.919063
     94          1           0       -6.543949    2.438753   -2.528483
     95          1           0       -4.664110    1.794175    0.765943
     96          1           0       -4.405247    3.428029    1.331846
     97          1           0       -4.491054   -3.512281   -1.080652
     98          1           0       -4.751305   -1.813053   -0.767186
     99          1           0       -4.091176   -3.808461    1.380041
    100          1           0       -4.598636   -2.159200    1.601716
    101          1           0       -6.379295   -3.542759   -0.847779
 ---------------------------------------------------------------------

 SCF Done:  E(UPBE1PBE) =  -3628.66313529     A.U. after   77 cycles

 Alpha virt. eigenvalues --    1.05586   1.05814   1.06317   1.06484   1.06996
 Alpha virt. eigenvalues --    1.07471   1.07817   1.08545   1.08795   1.09065
 Alpha virt. eigenvalues --    1.09141   1.09519   1.09911   1.10480   1.10932

  Beta  occ. eigenvalues -- -256.50250 -30.26869 -26.09960 -26.09727 -26.08884
  Beta  occ. eigenvalues --  -19.33660 -19.32512 -19.25325 -19.23450 -14.55125
  Beta  occ. eigenvalues --  -14.54793 -14.50795 -14.50635 -14.48965 -14.48831
  Beta  occ. eigenvalues --  -14.48526 -14.48465 -10.42367 -10.41596 -10.39110
  Beta  occ. eigenvalues --  -10.38778 -10.36297 -10.35974 -10.35844 -10.35574
  Beta  occ. eigenvalues --  -10.35503 -10.35371 -10.35368 -10.35322 -10.35236
  Beta  occ. eigenvalues --  -10.35212 -10.33876 -10.33643 -10.32746 -10.32679
  Beta  occ. eigenvalues --  -10.32500 -10.32399 -10.32328 -10.32284 -10.32258
  Beta  occ. eigenvalues --  -10.32106 -10.31974 -10.31911 -10.31905 -10.31875
  Beta  occ. eigenvalues --  -10.31768 -10.31764 -10.31455 -10.31412 -10.31079
  Beta  occ. eigenvalues --  -10.30905 -10.30871 -10.30344 -10.30125 -10.30044
  Beta  occ. eigenvalues --  -10.29864 -10.29093 -10.28692 -10.27884  -3.59140
  Beta  occ. eigenvalues --   -2.34472  -2.34235  -2.33956  -1.24026  -1.23591
  Beta  occ. eigenvalues --   -1.17308  -1.17044  -1.10077  -1.08610  -1.07898
  Beta  occ. eigenvalues --   -1.06953  -1.06584  -1.05635  -1.01964  -1.01660
  Beta  occ. eigenvalues --   -0.94157  -0.93520  -0.93066  -0.93020  -0.92316
  Beta  occ. eigenvalues --   -0.91433  -0.91094  -0.90899  -0.90360  -0.88432
  Beta  occ. eigenvalues --   -0.87927  -0.87605  -0.86483  -0.85321  -0.83491
  Beta  occ. eigenvalues --   -0.82604  -0.82265  -0.81548  -0.81485  -0.80999
  Beta  occ. eigenvalues --   -0.78869  -0.77824  -0.77465  -0.75686  -0.75646
  Beta  occ. eigenvalues --   -0.75492  -0.75136  -0.74463  -0.74190  -0.72958
  Beta  occ. eigenvalues --   -0.72805  -0.72486  -0.71150  -0.69026  -0.67793
  Beta  occ. eigenvalues --   -0.67144  -0.66892  -0.65693  -0.64734  -0.64006
  Beta  occ. eigenvalues --   -0.63505  -0.62552  -0.62169  -0.61952  -0.60961
  Beta  occ. eigenvalues --   -0.60378  -0.59799  -0.58878  -0.58651  -0.58432
  Beta  occ. eigenvalues --   -0.58391  -0.58209  -0.58052  -0.57879  -0.57404
  Beta  occ. eigenvalues --   -0.56811  -0.56279  -0.55954  -0.55612  -0.55052
  Beta  occ. eigenvalues --   -0.54672  -0.54278  -0.54260  -0.53961  -0.53779
  Beta  occ. eigenvalues --   -0.53560  -0.53408  -0.53358  -0.53110  -0.52970
  Beta  occ. eigenvalues --   -0.52778  -0.52572  -0.52457  -0.52323  -0.52264
  Beta  occ. eigenvalues --   -0.52123  -0.51722  -0.51551  -0.51441  -0.51243
  Beta  occ. eigenvalues --   -0.50872  -0.50496  -0.50399  -0.50255  -0.49949
  Beta  occ. eigenvalues --   -0.49767  -0.49274  -0.49075  -0.48942  -0.48764
  Beta  occ. eigenvalues --   -0.48365  -0.48170  -0.47854  -0.47648  -0.47502
  Beta  occ. eigenvalues --   -0.47171  -0.46989  -0.46730  -0.46608  -0.46194
  Beta  occ. eigenvalues --   -0.45769  -0.45263  -0.45008  -0.44518  -0.44282
  Beta  occ. eigenvalues --   -0.43938  -0.43680  -0.43222  -0.43122  -0.42711
  Beta  occ. eigenvalues --   -0.42210  -0.41331  -0.41065  -0.40438  -0.38521
  Beta  occ. eigenvalues --   -0.38249  -0.37926  -0.37227  -0.36979  -0.35261
  Beta  occ. eigenvalues --   -0.35201  -0.34858  -0.34607  -0.34436  -0.33816
  Beta  occ. eigenvalues --   -0.33195  -0.32168  -0.29898  -0.29465  -0.28047
  Beta virt. eigenvalues --   -0.19153  -0.17398  -0.15656  -0.13097  -0.12694
  Beta virt. eigenvalues --   -0.10255  -0.09653  -0.08876  -0.08414  -0.08106
  Beta virt. eigenvalues --   -0.06732  -0.06241  -0.05652  -0.05595  -0.05268

 Mulliken charges and spin densities:
               1          2
     1  C   -0.371940  -0.000322
     2  C    0.156145  -0.000420
     3  N   -0.201160   0.000228
     4  C   -0.199591   0.001492
     5  C    0.020679   0.004183
     6  N    0.108506  -0.035164
     7  C   -0.372594  -0.000144
     8  C    0.105877   0.001358
     9  N   -0.193534  -0.001777
    10  C   -0.121386  -0.000386
    11  C    0.033459  -0.001966
    12  N    0.059617  -0.024839
    13  Fe  -0.406467   1.122216
    14  C   -0.535110  -0.039353
    15  C   -0.519026  -0.024460
    16  C   -0.558347   0.032391
    17  C   -0.524892   0.023845
    18  N    0.072741  -0.045400
    19  C    0.222271   0.027374
    20  C    0.070145   0.001689
    21  C   -0.100834   0.002827
    22  C    0.229771   0.021756
    23  C   -0.375711  -0.000394
    24  C   -0.465841  -0.000844
    25  C   -0.167530   0.000382
    26  C    0.269981   0.000109
    27  O   -0.356754   0.000087
    28  O   -0.258656   0.000005
    29  N   -0.030486  -0.041392
    30  C    0.325107   0.032825
    31  C   -0.065092  -0.118213
    32  C    0.075304   0.162271
    33  C    0.125253  -0.057131
    34  C   -0.381362   0.009087
    35  C   -0.269289  -0.946512
    36  C   -0.331228   0.066324
    37  N    0.053623   0.006230
    38  C    0.338092  -0.037310
    39  C   -0.055401   0.143416
    40  C    0.036865  -0.150884
    41  C    0.220257   0.014837
    42  C   -0.421272  -0.011966
    43  C   -0.316717   0.920603
    44  C   -0.297918  -0.067885
    45  N   -0.061480  -0.041723
    46  C    0.322185  -0.005429
    47  C   -0.073525   0.022492
    48  C    0.000699   0.000794
    49  C    0.235242   0.027908
    50  C   -0.373321  -0.001764
    51  C   -0.311860  -0.000486
    52  C   -0.195485   0.000169
    53  C    0.315315   0.000073
    54  O   -0.358427   0.000019
    55  O   -0.320070   0.000017
    56  H    0.149248   0.000037
    57  H    0.145930   0.000014
    58  H    0.152049   0.000079
    59  H    0.166353  -0.000183
    60  H    0.247906   0.000046
    61  H    0.188487  -0.000282
    62  H    0.148037   0.000002
    63  H    0.149934   0.000025
    64  H    0.151988  -0.000091
    65  H    0.250274  -0.000109
    66  H    0.188705  -0.000424
    67  H    0.165930  -0.000545
    68  H    0.145002  -0.071785
    69  H    0.124473  -0.021043
    70  H    0.142285  -0.013807
    71  H    0.134839   0.066470
    72  H    0.134576   0.002445
    73  H    0.133154   0.044782
    74  H    0.145721  -0.048072
    75  H    0.140395   0.048053
    76  H    0.158497   0.004457
    77  H    0.160322   0.006502
    78  H    0.130753   0.000291
    79  H    0.127490  -0.006428
    80  H    0.144713  -0.003339
    81  H    0.153754  -0.005514
    82  H    0.128652   0.000014
    83  H    0.129108   0.000830
    84  H    0.146938   0.000096
    85  H    0.153561   0.000214
    86  H    0.123999  -0.000104
    87  H    0.128318   0.003142
    88  H    0.123259   0.001712
    89  H    0.147230   0.000727
    90  H    0.154716   0.000821
    91  H    0.131225   0.000121
    92  H    0.099504   0.000076
    93  H    0.130574  -0.000021
    94  H    0.359105   0.000001
    95  H    0.131034  -0.000050
    96  H    0.146870   0.000065
    97  H    0.124137  -0.000034
    98  H    0.148445   0.000008
    99  H    0.140568  -0.000032
   100  H    0.129817  -0.000010
   101  H    0.337300   0.000001
 Sum of Mulliken charges =   1.00000   1.00000

 Dipole moment (field-independent basis, Debye):
    X=             10.7476    Y=             -0.9386    Z=             -5.3390  Tot=             12.0373
 Quadrupole moment (field-independent basis, Debye-Ang):
   XX=           -307.4915   YY=           -286.9934   ZZ=           -246.1383
   XY=             -2.3790   XZ=             30.1570   YZ=              5.4375

 Summary of Natural Population Analysis:

                                       Natural Population
                Natural  -----------------------------------------------
    Atom  No    Charge         Core      Valence    Rydberg      Total
 -----------------------------------------------------------------------
      C    1   -0.32054      0.99969     2.31775    0.00310     3.32054
      C    2    0.05951      0.99955     1.93181    0.00914     2.94049
      N    3   -0.23534      0.99968     2.72583    0.00983     3.73534
      C    4   -0.03159      0.99943     2.02300    0.00916     3.03159
      C    5    0.10759      0.99965     1.88347    0.00929     2.89241
      N    6   -0.18192      0.99967     2.65766    0.02459     3.68192
      C    7   -0.32056      0.99969     2.31774    0.00313     3.32056
      C    8    0.06113      0.99954     1.93016    0.00917     2.93887
      N    9   -0.23717      0.99968     2.72767    0.00982     3.73717
      C   10   -0.03471      0.99943     2.02586    0.00942     3.03471
      C   11    0.10588      0.99966     1.88514    0.00932     2.89412
      N   12   -0.17842      0.99967     2.65461    0.02414     3.67842
     Fe   13    0.69886      8.99476     3.28036    0.02603    12.30114
      C   14   -0.14073      0.99948     2.13262    0.00864     3.14073
      C   15   -0.12347      0.99951     2.11610    0.00786     3.12347
      C   16   -0.10812      0.99948     2.10035    0.00828     3.10812
      C   17   -0.11021      0.99949     2.10286    0.00787     3.11021
      N   18   -0.20650      0.99967     2.68145    0.02538     3.70650
      C   19    0.08767      0.99950     1.90284    0.00999     2.91233
      C   20   -0.00916      0.99940     1.99984    0.00992     3.00916
      C   21   -0.00622      0.99941     1.99874    0.00807     3.00622
      C   22    0.08999      0.99952     1.90041    0.01008     2.91001
      C   23   -0.31853      0.99970     2.31530    0.00353     3.31853
      C   24   -0.22096      0.99967     2.21369    0.00759     3.22096
      C   25   -0.25521      0.99964     2.24697    0.00861     3.25521
      C   26    0.37790      0.99975     1.60502    0.01733     2.62210
      O   27   -0.28599      0.99989     3.27408    0.01202     4.28599
      O   28   -0.31063      0.99980     3.29514    0.01568     4.31063
      N   29   -0.21276      0.99968     2.69279    0.02028     3.71276
      C   30    0.09074      0.99951     1.89933    0.01042     2.90926
      C   31   -0.04946      0.99946     2.04157    0.00843     3.04946
      C   32   -0.00764      0.99945     1.99723    0.01095     3.00764
      C   33    0.05420      0.99953     1.93525    0.01102     2.94580
      C   34   -0.31618      0.99969     2.31255    0.00394     3.31618
      C   35   -0.47388      0.99964     2.46287    0.01137     3.47388
      C   36   -0.31627      0.99968     2.30861    0.00798     3.31627
      N   37   -0.18779      0.99967     2.66326    0.02486     3.68779
      C   38    0.06169      0.99951     1.92871    0.01009     2.93831
      C   39    0.06583      0.99942     1.92683    0.00792     2.93417
      C   40   -0.10904      0.99946     2.09923    0.01035     3.10904
      C   41    0.11014      0.99953     1.88060    0.00972     2.88986
      C   42   -0.32373      0.99969     2.32035    0.00368     3.32373
      C   43    0.37633      0.99960     1.61587    0.00820     2.62367
      C   44   -0.35781      0.99967     2.35081    0.00732     3.35781
      N   45   -0.21076      0.99968     2.69070    0.02038     3.71076
      C   46    0.07906      0.99951     1.91109    0.01034     2.92094
      C   47    0.00516      0.99942     1.98728    0.00814     2.99484
      C   48   -0.01159      0.99942     2.00296    0.00921     3.01159
      C   49    0.08573      0.99951     1.90474    0.01002     2.91427
      C   50   -0.31936      0.99969     2.31589    0.00377     3.31936
      C   51   -0.20812      0.99966     2.20183    0.00663     3.20812
      C   52   -0.24872      0.99963     2.24072    0.00837     3.24872
      C   53    0.38180      0.99975     1.60044    0.01802     2.61820
      O   54   -0.34411      0.99979     3.32943    0.01489     4.34411
      O   55   -0.27091      0.99989     3.25910    0.01192     4.27091
      H   56    0.11375      0.00000     0.38559    0.00066     0.38625
      H   57    0.11929      0.00000     0.38025    0.00046     0.38071
      H   58    0.11541      0.00000     0.38393    0.00065     0.38459
      H   59    0.12054      0.00000     0.37827    0.00119     0.37946
      H   60    0.21284      0.00000     0.28637    0.00080     0.28716
      H   61    0.11617      0.00000     0.38271    0.00112     0.38383
      H   62    0.11977      0.00000     0.37978    0.00045     0.38023
      H   63    0.11454      0.00000     0.38480    0.00065     0.38546
      H   64    0.11497      0.00000     0.38438    0.00065     0.38503
      H   65    0.21343      0.00000     0.28578    0.00080     0.28657
      H   66    0.11630      0.00000     0.38282    0.00089     0.38370
      H   67    0.11991      0.00000     0.37924    0.00085     0.38009
      H   68    0.08340      0.00000     0.41497    0.00162     0.41660
      H   69    0.09924      0.00000     0.39968    0.00108     0.40076
      H   70    0.10993      0.00000     0.38945    0.00062     0.39007
      H   71    0.14669      0.00000     0.35281    0.00050     0.35331
      H   72    0.11568      0.00000     0.38382    0.00050     0.38432
      H   73    0.13204      0.00000     0.36732    0.00064     0.36796
      H   74    0.08469      0.00000     0.41447    0.00083     0.41531
      H   75    0.11221      0.00000     0.38689    0.00091     0.38779
      H   76    0.11603      0.00000     0.38329    0.00068     0.38397
      H   77    0.11781      0.00000     0.38157    0.00062     0.38219
      H   78    0.11014      0.00000     0.38924    0.00062     0.38986
      H   79    0.11524      0.00000     0.38297    0.00180     0.38476
      H   80    0.11199      0.00000     0.38698    0.00103     0.38801
      H   81    0.11493      0.00000     0.38421    0.00086     0.38507
      H   82    0.10907      0.00000     0.39034    0.00058     0.39093
      H   83    0.11283      0.00000     0.38580    0.00137     0.38717
      H   84    0.11384      0.00000     0.38544    0.00072     0.38616
      H   85    0.11517      0.00000     0.38411    0.00072     0.38483
      H   86    0.10912      0.00000     0.39019    0.00069     0.39088
      H   87    0.11444      0.00000     0.38432    0.00124     0.38556
      H   88    0.11244      0.00000     0.38645    0.00111     0.38756
      H   89    0.11573      0.00000     0.38350    0.00078     0.38427
      H   90    0.11750      0.00000     0.38176    0.00073     0.38250
      H   91    0.11053      0.00000     0.38890    0.00056     0.38947
      H   92    0.10285      0.00000     0.39635    0.00080     0.39715
      H   93    0.11648      0.00000     0.38282    0.00070     0.38352
      H   94    0.25948      0.00000     0.23940    0.00111     0.24052
      H   95    0.10807      0.00000     0.39104    0.00090     0.39193
      H   96    0.11939      0.00000     0.37980    0.00081     0.38061
      H   97    0.10084      0.00000     0.39816    0.00100     0.39916
      H   98    0.11020      0.00000     0.38899    0.00081     0.38980
      H   99    0.12070      0.00000     0.37867    0.00063     0.37930
      H  100    0.11978      0.00000     0.37959    0.00063     0.38022
      H  101    0.24950      0.00000     0.24961    0.00089     0.25050
 =======================================================================
   * Total *    1.00000     62.97318   141.38336    0.64346   205.00000

 Normal termination of Gaussian 16 at Wed Apr  5 11:44:01 2023.
