 Gaussian 16, Revision A.03,
 Gaussian 16:  ES64L-G16RevA.03 25-Dec-2016

 ----------------------------------------------------------------------
 # PBE1PBE/def2TZVP scf=maxcycle=999 empiricaldispersion=GD3BJ geom=che
 ck pop=nbo
 ----------------------------------------------------------------------

 ----------
 1mz4_III_H
 ----------
 Structure from the checkpoint file:  "1mz4_III_H.chk"
 Charge =  1 Multiplicity = 6

                         Standard orientation:
 ---------------------------------------------------------------------
 Center     Atomic      Atomic             Coordinates (Angstroms)
 Number     Number       Type             X           Y           Z
 ---------------------------------------------------------------------
      1          6           0        2.652192   -1.957398    4.905315
      2          6           0        1.789343   -1.366360    3.832160
      3          7           0        0.441607   -1.127899    4.000253
      4          6           0        2.074424   -1.016065    2.555177
      5          6           0       -0.066117   -0.662861    2.872670
      6          7           0        0.905473   -0.585140    1.979037
      7          6           0       -0.055051    2.968785   -4.406324
      8          6           0        0.293411    1.782913   -3.561356
      9          7           0        1.249874    0.862793   -3.931495
     10          6           0       -0.092036    1.446560   -2.308206
     11          6           0        1.443232    0.011381   -2.936084
     12          7           0        0.644178    0.345284   -1.938674
     13         26           0        0.791272   -0.077071    0.030868
     14          6           0       -2.649261   -0.034497    0.169966
     15          6           0        0.725411   -3.410312   -0.799558
     16          6           0        4.249295   -0.088037   -0.242435
     17          6           0        0.876277    3.175938    1.054961
     18          7           0       -0.647628   -1.420887   -0.225797
     19          6           0       -2.020364   -1.237068   -0.128632
     20          6           0       -2.731694   -2.463914   -0.432595
     21          6           0       -1.791109   -3.393654   -0.732185
     22          6           0       -0.501005   -2.761774   -0.575488
     23          6           0       -2.055322   -4.824121   -1.201637
     24          6           0       -4.253555   -2.697707   -0.428760
     25          6           0       -4.713412   -3.029972    0.990584
     26          6           0       -6.162927   -3.484724    1.055693
     27          8           0       -6.637765   -3.806183    2.167351
     28          8           0       -6.827140   -3.523508    0.001140
     29          7           0        2.175277   -1.431872   -0.433122
     30          6           0        1.974124   -2.780763   -0.723170
     31          6           0        3.228971   -3.442531   -1.000435
     32          6           0        4.233911   -2.516470   -0.914547
     33          6           0        3.570057   -1.267481   -0.536002
     34          6           0        3.395761   -4.934778   -1.271595
     35          6           0        5.614432   -2.740927   -1.115335
     36          6           0        6.122297   -3.177362   -2.346920
     37          7           0        2.237811    1.245441    0.305584
     38          6           0        3.619158    1.091168    0.152940
     39          6           0        4.331136    2.286766    0.563021
     40          6           0        3.396461    3.199510    0.939554
     41          6           0        2.094374    2.552540    0.770617
     42          6           0        5.853329    2.447297    0.667483
     43          6           0        3.627666    4.458675    1.520303
     44          6           0        4.272384    5.471069    0.828936
     45          7           0       -0.583293    1.266834    0.519718
     46          6           0       -0.373569    2.585845    0.911266
     47          6           0       -1.630891    3.294715    1.052810
     48          6           0       -2.619234    2.406522    0.763364
     49          6           0       -1.975535    1.142253    0.472328
     50          6           0       -1.814787    4.747132    1.486482
     51          6           0       -4.107158    2.694720    0.611916
     52          6           0       -4.369233    3.222769   -0.792767
     53          6           0       -5.839362    3.463725   -1.063135
     54          8           0       -6.527767    2.550615   -1.575160
     55          8           0       -6.306151    4.574090   -0.750179
     56          1           0       -0.435413    2.635463   -5.349256
     57          1           0       -0.799081    3.555037   -3.908703
     58          1           0        0.820313    3.563345   -4.564875
     59          1           0       -0.831187    1.944324   -1.715933
     60          1           0        1.722983    0.841416   -4.812240
     61          1           0        2.130627   -0.808606   -2.939110
     62          1           0        3.660597   -2.026828    4.554319
     63          1           0        2.619001   -1.333249    5.773782
     64          1           0        2.293094   -2.934148    5.154128
     65          1           0       -0.071653   -1.282865    4.844379
     66          1           0       -1.089178   -0.394796    2.710228
     67          1           0        3.033293   -1.066015    2.082975
     68          1           0        6.107721   -4.246752   -2.379950
     69          1           0        5.518679   -2.787773   -3.139868
     70          1           0        7.128131   -2.830679   -2.460979
     71          1           0        3.620992    5.857844    0.073295
     72          1           0        4.535984    6.254882    1.507944
     73          1           0        5.158214    5.082543    0.371494
     74          1           0        3.297233    4.639601    2.521792
     75          1           0        6.291617   -2.572965   -0.304095
     76          1           0        6.217721    2.962870   -0.196405
     77          1           0        6.093264    3.009275    1.545841
     78          1           0        6.310633    1.481707    0.725870
     79          1           0        5.316103   -0.086535   -0.325000
     80          1           0        3.963307   -5.073136   -2.168059
     81          1           0        3.908451   -5.391308   -0.450845
     82          1           0        2.432489   -5.386342   -1.386034
     83          1           0        0.703795   -4.451749   -1.044184
     84          1           0       -1.522290   -5.005059   -2.111603
     85          1           0       -1.724947   -5.512318   -0.451878
     86          1           0       -3.103680   -4.956334   -1.370052
     87          1           0        0.908550    4.184641    1.410457
     88          1           0       -3.719050   -0.013489    0.166826
     89          1           0       -2.344054    5.282178    0.725889
     90          1           0       -2.372757    4.778999    2.398926
     91          1           0       -0.856417    5.198030    1.638535
     92          1           0       -4.000073    2.512308   -1.502602
     93          1           0       -3.839943    4.144073   -0.919063
     94          1           0       -6.543949    2.438753   -2.528483
     95          1           0       -4.664110    1.794175    0.765943
     96          1           0       -4.405247    3.428029    1.331846
     97          1           0       -4.491054   -3.512281   -1.080652
     98          1           0       -4.751305   -1.813053   -0.767186
     99          1           0       -4.091176   -3.808461    1.380041
    100          1           0       -4.598636   -2.159200    1.601716
    101          1           0       -6.379295   -3.542759   -0.847779
 ---------------------------------------------------------------------

 SCF Done:  E(UPBE1PBE) =  -3628.65023612     A.U. after   47 cycles

 Alpha virt. eigenvalues --    1.06113   1.06429   1.06795   1.07352   1.07727
 Alpha virt. eigenvalues --    1.08467   1.08687   1.08771   1.09095   1.09491
 Alpha virt. eigenvalues --    1.09878   1.10364   1.10800   1.11193   1.11443

  Beta  occ. eigenvalues -- -256.50173 -30.24844 -26.08344 -26.08091 -26.06956
  Beta  occ. eigenvalues --  -19.33754 -19.32535 -19.25350 -19.23542 -14.54570
  Beta  occ. eigenvalues --  -14.54214 -14.48784 -14.48599 -14.48592 -14.48530
  Beta  occ. eigenvalues --  -14.48450 -14.48099 -10.42393 -10.41696 -10.38379
  Beta  occ. eigenvalues --  -10.38042 -10.35907 -10.35765 -10.35663 -10.35658
  Beta  occ. eigenvalues --  -10.35657 -10.35632 -10.35603 -10.35597 -10.35512
  Beta  occ. eigenvalues --  -10.35420 -10.33261 -10.32982 -10.32860 -10.32646
  Beta  occ. eigenvalues --  -10.32610 -10.32465 -10.32462 -10.32448 -10.32447
  Beta  occ. eigenvalues --  -10.32362 -10.32305 -10.32206 -10.32143 -10.32141
  Beta  occ. eigenvalues --  -10.31825 -10.31617 -10.31531 -10.31089 -10.31043
  Beta  occ. eigenvalues --  -10.30903 -10.30540 -10.30182 -10.30115 -10.30112
  Beta  occ. eigenvalues --  -10.30032 -10.29466 -10.28778 -10.28167  -3.55478
  Beta  occ. eigenvalues --   -2.31888  -2.31398  -2.27304  -1.24121  -1.23615
  Beta  occ. eigenvalues --   -1.16511  -1.16200  -1.10101  -1.08700  -1.08017
  Beta  occ. eigenvalues --   -1.06904  -1.06886  -1.05808  -1.01016  -1.00638
  Beta  occ. eigenvalues --   -0.93795  -0.93296  -0.93146  -0.92847  -0.92527
  Beta  occ. eigenvalues --   -0.91057  -0.90905  -0.90528  -0.90486  -0.88473
  Beta  occ. eigenvalues --   -0.87999  -0.87095  -0.86685  -0.85467  -0.83604
  Beta  occ. eigenvalues --   -0.82083  -0.81835  -0.81614  -0.81476  -0.81244
  Beta  occ. eigenvalues --   -0.79013  -0.77931  -0.77553  -0.75795  -0.75605
  Beta  occ. eigenvalues --   -0.74869  -0.74539  -0.74378  -0.74182  -0.72242
  Beta  occ. eigenvalues --   -0.71995  -0.71880  -0.71301  -0.69110  -0.67941
  Beta  occ. eigenvalues --   -0.66530  -0.66298  -0.65748  -0.64712  -0.63935
  Beta  occ. eigenvalues --   -0.63530  -0.62460  -0.62247  -0.62094  -0.61078
  Beta  occ. eigenvalues --   -0.60415  -0.59752  -0.58910  -0.58455  -0.58358
  Beta  occ. eigenvalues --   -0.58118  -0.57742  -0.57566  -0.57425  -0.57301
  Beta  occ. eigenvalues --   -0.56785  -0.56296  -0.55497  -0.55239  -0.54898
  Beta  occ. eigenvalues --   -0.54535  -0.54359  -0.54297  -0.53731  -0.53513
  Beta  occ. eigenvalues --   -0.53441  -0.53229  -0.53055  -0.52931  -0.52856
  Beta  occ. eigenvalues --   -0.52388  -0.52343  -0.52235  -0.52063  -0.51862
  Beta  occ. eigenvalues --   -0.51800  -0.51708  -0.51448  -0.51128  -0.51091
  Beta  occ. eigenvalues --   -0.51069  -0.50528  -0.50356  -0.50029  -0.49965
  Beta  occ. eigenvalues --   -0.49755  -0.49326  -0.49187  -0.48967  -0.48771
  Beta  occ. eigenvalues --   -0.48395  -0.48257  -0.47771  -0.47664  -0.47583
  Beta  occ. eigenvalues --   -0.47267  -0.47093  -0.46561  -0.46291  -0.46126
  Beta  occ. eigenvalues --   -0.45300  -0.45223  -0.44873  -0.44366  -0.44103
  Beta  occ. eigenvalues --   -0.43700  -0.43564  -0.43222  -0.42852  -0.42340
  Beta  occ. eigenvalues --   -0.41383  -0.41298  -0.41071  -0.39951  -0.38440
  Beta  occ. eigenvalues --   -0.38300  -0.37986  -0.35927  -0.35432  -0.35188
  Beta  occ. eigenvalues --   -0.34797  -0.34448  -0.34304  -0.34133  -0.33650
  Beta  occ. eigenvalues --   -0.32987  -0.29722  -0.29120
  Beta virt. eigenvalues --   -0.19060  -0.18981  -0.14780  -0.14598  -0.13601
  Beta virt. eigenvalues --   -0.12760  -0.10079  -0.09164  -0.08820  -0.08394
  Beta virt. eigenvalues --   -0.07580  -0.07048  -0.06520  -0.06191  -0.05654

 Mulliken charges and spin densities:
               1          2
     1  C   -0.372935   0.001297
     2  C    0.152871   0.003190
     3  N   -0.202319   0.004830
     4  C   -0.197981   0.002924
     5  C    0.021138   0.011167
     6  N    0.054339   0.050755
     7  C   -0.373544   0.001295
     8  C    0.103984   0.001578
     9  N   -0.194622   0.005422
    10  C   -0.120629   0.002880
    11  C    0.031876   0.011383
    12  N    0.007165   0.050361
    13  Fe  -0.295343   2.921348
    14  C   -0.533737  -0.020153
    15  C   -0.518337   0.040310
    16  C   -0.558288   0.020849
    17  C   -0.522737  -0.029988
    18  N    0.063126  -0.044893
    19  C    0.224672   0.024460
    20  C    0.073790  -0.004239
    21  C   -0.097272   0.020117
    22  C    0.233346  -0.014552
    23  C   -0.375506  -0.001809
    24  C   -0.465610  -0.000129
    25  C   -0.168009   0.000097
    26  C    0.269850   0.000014
    27  O   -0.355931   0.000056
    28  O   -0.258322  -0.000004
    29  N   -0.030324  -0.012577
    30  C    0.327736  -0.022885
    31  C   -0.066874   0.130175
    32  C    0.075024  -0.131683
    33  C    0.132157   0.033198
    34  C   -0.381613  -0.009523
    35  C   -0.271346   0.947262
    36  C   -0.331087  -0.065913
    37  N    0.037700  -0.051018
    38  C    0.341442  -0.011598
    39  C   -0.049385   0.155242
    40  C    0.039694  -0.138205
    41  C    0.225133   0.071118
    42  C   -0.420416  -0.013190
    43  C   -0.315151   0.918463
    44  C   -0.299300  -0.067705
    45  N   -0.062375  -0.059093
    46  C    0.325937   0.045457
    47  C   -0.075562   0.007389
    48  C    0.002047   0.022050
    49  C    0.236453   0.027547
    50  C   -0.372990  -0.000987
    51  C   -0.311856  -0.002564
    52  C   -0.195827   0.001408
    53  C    0.315484   0.000239
    54  O   -0.358589   0.000052
    55  O   -0.319959   0.000170
    56  H    0.147990   0.000034
    57  H    0.144358   0.000013
    58  H    0.150113   0.000131
    59  H    0.162060   0.000587
    60  H    0.244198   0.002022
    61  H    0.183728   0.001097
    62  H    0.146380   0.000002
    63  H    0.148343   0.000113
    64  H    0.150509   0.000131
    65  H    0.246334   0.002134
    66  H    0.183574   0.000603
    67  H    0.161106   0.000979
    68  H    0.145044   0.072208
    69  H    0.124937   0.021151
    70  H    0.141902   0.014138
    71  H    0.136431   0.066607
    72  H    0.136026   0.002659
    73  H    0.134012   0.044914
    74  H    0.148189  -0.047045
    75  H    0.140412  -0.046856
    76  H    0.159936   0.005315
    77  H    0.161427   0.006585
    78  H    0.132573   0.000584
    79  H    0.127856   0.004351
    80  H    0.144677   0.003637
    81  H    0.153823   0.005979
    82  H    0.128089  -0.000160
    83  H    0.129316  -0.001962
    84  H    0.148407   0.000777
    85  H    0.154941   0.000949
    86  H    0.124590  -0.000029
    87  H    0.128815   0.005162
    88  H    0.123551   0.000456
    89  H    0.147695   0.000456
    90  H    0.155116   0.000613
    91  H    0.130658   0.000040
    92  H    0.100478  -0.000084
    93  H    0.130716  -0.000092
    94  H    0.359263  -0.000008
    95  H    0.130987   0.000193
    96  H    0.147082   0.000318
    97  H    0.124682  -0.000113
    98  H    0.149480  -0.000031
    99  H    0.140933  -0.000016
   100  H    0.130805   0.000049
   101  H    0.337269   0.000012
 Sum of Mulliken charges =   1.00000   5.00000

 Dipole moment (field-independent basis, Debye):
    X=             10.7709    Y=             -0.7469    Z=             -5.2964  Tot=             12.0258
 Quadrupole moment (field-independent basis, Debye-Ang):
   XX=           -304.7579   YY=           -285.0231   ZZ=           -250.0690
   XY=              0.0107   XZ=             30.2555   YZ=              7.3576

 Summary of Natural Population Analysis:

                                       Natural Population
                Natural  -----------------------------------------------
    Atom  No    Charge         Core      Valence    Rydberg      Total
 -----------------------------------------------------------------------
      C    1   -0.32008      0.99969     2.31732    0.00307     3.32008
      C    2    0.06104      0.99954     1.93039    0.00903     2.93896
      N    3   -0.23244      0.99968     2.72296    0.00980     3.73244
      C    4   -0.03022      0.99943     2.02193    0.00887     3.03022
      C    5    0.11267      0.99964     1.87732    0.01036     2.88733
      N    6   -0.15261      0.99971     2.63150    0.02141     3.65261
      C    7   -0.32010      0.99969     2.31732    0.00310     3.32010
      C    8    0.06113      0.99954     1.93043    0.00890     2.93887
      N    9   -0.23272      0.99968     2.72333    0.00971     3.73272
      C   10   -0.03171      0.99942     2.02281    0.00948     3.03171
      C   11    0.11285      0.99965     1.87668    0.01082     2.88715
      N   12   -0.15505      0.99971     2.63565    0.01970     3.65505
     Fe   13    1.60181      8.99467     2.37532    0.02821    11.39819
      C   14   -0.13121      0.99948     2.12308    0.00866     3.13121
      C   15   -0.09572      0.99951     2.08833    0.00788     3.09572
      C   16   -0.11876      0.99948     2.11120    0.00808     3.11876
      C   17   -0.13084      0.99949     2.12341    0.00794     3.13084
      N   18   -0.20251      0.99968     2.67987    0.02296     3.70251
      C   19    0.08958      0.99950     1.90072    0.01021     2.91042
      C   20   -0.01023      0.99940     2.00094    0.00989     3.01023
      C   21    0.00416      0.99941     1.98835    0.00807     2.99584
      C   22    0.07735      0.99951     1.91278    0.01035     2.92265
      C   23   -0.31936      0.99969     2.31614    0.00352     3.31936
      C   24   -0.22103      0.99967     2.21378    0.00758     3.22103
      C   25   -0.25523      0.99964     2.24698    0.00861     3.25523
      C   26    0.37780      0.99975     1.60513    0.01732     2.62220
      O   27   -0.28557      0.99989     3.27365    0.01203     4.28557
      O   28   -0.31049      0.99980     3.29500    0.01569     4.31049
      N   29   -0.20839      0.99970     2.68629    0.02240     3.70839
      C   30    0.06936      0.99951     1.92046    0.01067     2.93064
      C   31    0.06299      0.99944     1.92955    0.00802     2.93701
      C   32   -0.09884      0.99947     2.08925    0.01012     3.09884
      C   33    0.11284      0.99951     1.87763    0.01002     2.88716
      C   34   -0.32130      0.99970     2.31794    0.00366     3.32130
      C   35    0.38603      0.99962     1.60660    0.00776     2.61397
      C   36   -0.35888      0.99968     2.35216    0.00703     3.35888
      N   37   -0.20949      0.99968     2.68738    0.02242     3.70949
      C   38    0.07949      0.99951     1.91074    0.01027     2.92051
      C   39    0.07561      0.99942     1.91713    0.00785     2.92439
      C   40   -0.10009      0.99946     2.09035    0.01028     3.10009
      C   41    0.13796      0.99952     1.85245    0.01006     2.86204
      C   42   -0.32434      0.99969     2.32098    0.00366     3.32434
      C   43    0.37761      0.99960     1.61463    0.00816     2.62239
      C   44   -0.35782      0.99967     2.35084    0.00731     3.35782
      N   45   -0.22788      0.99970     2.70555    0.02263     3.72788
      C   46    0.09877      0.99951     1.89089    0.01083     2.90123
      C   47    0.00584      0.99927     1.98372    0.01117     2.99416
      C   48   -0.00185      0.99943     1.99318    0.00924     3.00185
      C   49    0.08697      0.99950     1.90310    0.01043     2.91303
      C   50   -0.32017      0.99970     2.31483    0.00563     3.32017
      C   51   -0.20870      0.99966     2.20250    0.00654     3.20870
      C   52   -0.24824      0.99963     2.24024    0.00837     3.24824
      C   53    0.38185      0.99975     1.60040    0.01801     2.61815
      O   54   -0.34411      0.99979     3.32944    0.01488     4.34411
      O   55   -0.27075      0.99989     3.25894    0.01192     4.27075
      H   56    0.11324      0.00000     0.38609    0.00067     0.38676
      H   57    0.11866      0.00000     0.38088    0.00046     0.38134
      H   58    0.11471      0.00000     0.38463    0.00066     0.38529
      H   59    0.11924      0.00000     0.37960    0.00116     0.38076
      H   60    0.21204      0.00000     0.28722    0.00074     0.28796
      H   61    0.11472      0.00000     0.38442    0.00086     0.38528
      H   62    0.11914      0.00000     0.38041    0.00045     0.38086
      H   63    0.11395      0.00000     0.38540    0.00066     0.38605
      H   64    0.11451      0.00000     0.38483    0.00066     0.38549
      H   65    0.21262      0.00000     0.28664    0.00074     0.28738
      H   66    0.11441      0.00000     0.38480    0.00079     0.38559
      H   67    0.11841      0.00000     0.38075    0.00084     0.38159
      H   68    0.14905      0.00000     0.35039    0.00055     0.35095
      H   69    0.11942      0.00000     0.37999    0.00059     0.38058
      H   70    0.12491      0.00000     0.37466    0.00043     0.37509
      H   71    0.14729      0.00000     0.35220    0.00050     0.35271
      H   72    0.11629      0.00000     0.38322    0.00049     0.38371
      H   73    0.13226      0.00000     0.36711    0.00063     0.36774
      H   74    0.08590      0.00000     0.41328    0.00082     0.41410
      H   75    0.08415      0.00000     0.41502    0.00083     0.41585
      H   76    0.11708      0.00000     0.38225    0.00066     0.38292
      H   77    0.11832      0.00000     0.38106    0.00062     0.38168
      H   78    0.11089      0.00000     0.38849    0.00062     0.38911
      H   79    0.11627      0.00000     0.38254    0.00119     0.38373
      H   80    0.11539      0.00000     0.38390    0.00071     0.38461
      H   81    0.11863      0.00000     0.38069    0.00068     0.38137
      H   82    0.10894      0.00000     0.39050    0.00056     0.39106
      H   83    0.11226      0.00000     0.38639    0.00135     0.38774
      H   84    0.11472      0.00000     0.38458    0.00070     0.38528
      H   85    0.11612      0.00000     0.38318    0.00070     0.38388
      H   86    0.10933      0.00000     0.38998    0.00069     0.39067
      H   87    0.11512      0.00000     0.38359    0.00129     0.38488
      H   88    0.11226      0.00000     0.38663    0.00111     0.38774
      H   89    0.11591      0.00000     0.38339    0.00069     0.38409
      H   90    0.11768      0.00000     0.38168    0.00065     0.38232
      H   91    0.11058      0.00000     0.38901    0.00041     0.38942
      H   92    0.10302      0.00000     0.39618    0.00080     0.39698
      H   93    0.11654      0.00000     0.38276    0.00070     0.38346
      H   94    0.25953      0.00000     0.23936    0.00111     0.24047
      H   95    0.10815      0.00000     0.39098    0.00088     0.39185
      H   96    0.11960      0.00000     0.37960    0.00081     0.38040
      H   97    0.10097      0.00000     0.39804    0.00100     0.39903
      H   98    0.11055      0.00000     0.38864    0.00081     0.38945
      H   99    0.12076      0.00000     0.37861    0.00063     0.37924
      H  100    0.12002      0.00000     0.37935    0.00063     0.37998
      H  101    0.24944      0.00000     0.24967    0.00089     0.25056
 =======================================================================
   * Total *    3.00002     62.97296   139.39209    0.63493   202.99998

 Normal termination of Gaussian 16 at Fri Apr  7 16:14:45 2023.
