 Gaussian 16, Revision A.03,
 Gaussian 16:  ES64L-G16RevA.03 25-Dec-2016

 ---------------------------------------------------------------------
 # polar def2tzvp empiricaldispersion=gd3bj int=grid=ultrafine pbe1pbe
 ---------------------------------------------------------------------

 ---------
 1nsi_II_S
 ---------
 Symbolic Z-matrix:
 Charge =  0 Multiplicity = 1

                         Standard orientation:
 ---------------------------------------------------------------------
 Center     Atomic      Atomic             Coordinates (Angstroms)
 Number     Number       Type             X           Y           Z
 ---------------------------------------------------------------------
      1          6           0        0.482793    0.900315    3.602364
      2         16           0        1.453364   -0.179138    2.552631
      3          6           0       -2.286643   -0.070617    0.721968
      4          6           0        1.114024   -3.446392    0.402323
      5          6           0        4.145897   -0.099652   -1.042394
      6          6           0        1.008312    3.318595    0.221160
      7          6           0       -1.649705   -1.272704    0.627219
      8          6           0       -2.357679   -2.525856    0.569728
      9          6           0       -1.395731   -3.488733    0.607133
     10          6           0       -0.107914   -2.810871    0.587063
     11          6           0       -1.630996   -4.998196    0.667829
     12          6           0       -3.846021   -2.747069    0.310651
     13          6           0       -4.324452   -2.284257   -1.070039
     14          6           0       -5.716677   -2.798965   -1.424469
     15          8           0       -6.230844   -3.673127   -0.696361
     16          8           0       -6.295988   -2.335664   -2.432468
     17          6           0        2.313421   -2.821186    0.100693
     18          6           0        3.533980   -3.501969   -0.313198
     19          6           0        4.370816   -2.553825   -0.748418
     20          6           0        3.675950   -1.291885   -0.605551
     21          6           0        3.847644   -4.975579   -0.232980
     22          6           0        5.609250   -2.790811   -1.275369
     23          6           0        6.756966   -2.350939   -0.705118
     24          6           0        3.518488    1.110306   -0.861828
     25          6           0        4.124278    2.383378   -1.211913
     26          6           0        3.256838    3.345159   -0.803906
     27          6           0        2.137205    2.657317   -0.210701
     28          6           0        5.489191    2.554719   -1.849032
     29          6           0        3.314811    4.724424   -0.886558
     30          6           0        4.511535    5.345286   -1.024218
     31          6           0       -0.148089    2.687440    0.585216
     32          6           0       -1.424106    3.365964    0.717924
     33          6           0       -2.349624    2.407951    0.693386
     34          6           0       -1.659275    1.139075    0.665085
     35          6           0       -1.692418    4.841866    0.936089
     36          6           0       -3.831104    2.638570    0.581210
     37          6           0       -4.393340    2.381011   -0.812257
     38          6           0       -5.895274    2.559035   -0.869957
     39          8           0       -6.456653    3.115721    0.091491
     40          8           0       -6.521448    2.140493   -1.866221
     41          7           0       -0.275502   -1.448508    0.589689
     42          7           0        2.433301   -1.448847   -0.036151
     43          7           0        2.305392    1.274170   -0.230379
     44          7           0       -0.283645    1.300242    0.593228
     45         26           0        1.133022   -0.075088    0.368487
     46          1           0       -0.558351    0.726770    3.426860
     47          1           0        0.709992    0.698764    4.628355
     48          1           0        0.717022    1.920163    3.378874
     49          1           0        2.329011   -1.007490    3.065639
     50          1           0       -7.322996    3.513134   -0.023019
     51          1           0       -3.937433    3.061554   -1.500668
     52          1           0       -4.152010    1.380031   -1.103289
     53          1           0       -4.329444    1.993063    1.273943
     54          1           0       -4.038897    3.653237    0.849858
     55          1           0       -7.181609   -1.973756   -2.353111
     56          1           0       -4.338861   -1.214502   -1.087830
     57          1           0       -3.631684   -2.631511   -1.807865
     58          1           0       -4.055042   -3.791869    0.408644
     59          1           0       -4.401729   -2.217924    1.056369
     60          1           0       -3.349012   -0.076871    0.849384
     61          1           0       -2.488086   -5.249558    0.078664
     62          1           0       -0.772388   -5.508698    0.284320
     63          1           0       -1.797167   -5.292734    1.682981
     64          1           0       -2.702980    4.976453    1.260975
     65          1           0       -1.024668    5.219312    1.682108
     66          1           0       -1.538999    5.371619    0.019179
     67          1           0        1.038583    4.386832    0.274585
     68          1           0        1.130220   -4.511647    0.501664
     69          1           0        3.136502   -5.523799   -0.814901
     70          1           0        4.831900   -5.151979   -0.613797
     71          1           0        3.796977   -5.296032    0.786649
     72          1           0        5.600975    3.563818   -2.186851
     73          1           0        6.249182    2.333354   -1.129094
     74          1           0        5.580774    1.887918   -2.680830
     75          1           0        5.077467   -0.099049   -1.568776
     76          1           0        6.726243   -1.569445    0.025103
     77          1           0        7.694028   -2.785069   -0.985019
     78          1           0        5.675925   -3.351951   -2.183981
     79          1           0        2.414791    5.301366   -0.841817
     80          1           0        4.576460    6.409054   -0.928914
     81          1           0        5.391483    4.771722   -1.228215
 ---------------------------------------------------------------------

 SCF Done:  E(RPBE1PBE) =  -3535.48461099     A.U. after   30 cycles

 The electronic state is 1-A.
 Alpha  occ. eigenvalues -- -256.32947 -89.03513 -30.09880 -25.92846 -25.92372
 Alpha  occ. eigenvalues --  -25.92089 -19.27857 -19.25495 -19.18039 -19.17653
 Alpha  occ. eigenvalues --  -14.38438 -14.38412 -14.38319 -14.37673 -10.35905
 Alpha  occ. eigenvalues --  -10.35087 -10.25888 -10.25026 -10.24705 -10.24681
 Alpha  occ. eigenvalues --  -10.24649 -10.24539 -10.24515 -10.24428 -10.24339
 Alpha  occ. eigenvalues --  -10.23802 -10.22970 -10.22962 -10.22586 -10.22502
 Alpha  occ. eigenvalues --  -10.22434 -10.22400 -10.22251 -10.22247 -10.22078
 Alpha  occ. eigenvalues --  -10.22042 -10.22030 -10.21994 -10.21991 -10.21729
 Alpha  occ. eigenvalues --  -10.21714 -10.21517 -10.21302 -10.21224 -10.21209
 Alpha  occ. eigenvalues --  -10.21205 -10.21184 -10.21014 -10.21002  -8.01627
 Alpha  occ. eigenvalues --   -5.95317  -5.94988  -5.94438  -3.44754  -2.21270
 Alpha  occ. eigenvalues --   -2.20062  -2.19630  -1.18559  -1.16389  -1.02993
 Alpha  occ. eigenvalues --   -1.02360  -0.98504  -0.97565  -0.97114  -0.96185
 Alpha  occ. eigenvalues --   -0.85191  -0.85067  -0.84660  -0.83779  -0.83134
 Alpha  occ. eigenvalues --   -0.82424  -0.81810  -0.80967  -0.80321  -0.78917
 Alpha  occ. eigenvalues --   -0.78057  -0.77062  -0.75918  -0.74537  -0.73208
 Alpha  occ. eigenvalues --   -0.72572  -0.72082  -0.70898  -0.70061  -0.69486
 Alpha  occ. eigenvalues --   -0.69040  -0.67178  -0.66004  -0.65493  -0.64542
 Alpha  occ. eigenvalues --   -0.62936  -0.62028  -0.59526  -0.57927  -0.56094
 Alpha  occ. eigenvalues --   -0.55929  -0.55017  -0.54299  -0.52905  -0.52895
 Alpha  occ. eigenvalues --   -0.52488  -0.52098  -0.51652  -0.51616  -0.50841
 Alpha  occ. eigenvalues --   -0.50403  -0.50231  -0.49465  -0.49103  -0.48700
 Alpha  occ. eigenvalues --   -0.48660  -0.47386  -0.47012  -0.46064  -0.45891
 Alpha  occ. eigenvalues --   -0.45833  -0.45394  -0.45283  -0.44973  -0.44712
 Alpha  occ. eigenvalues --   -0.44554  -0.44140  -0.43897  -0.43813  -0.43477
 Alpha  occ. eigenvalues --   -0.43253  -0.42869  -0.42560  -0.42003  -0.41830
 Alpha  occ. eigenvalues --   -0.41375  -0.41223  -0.40800  -0.40421  -0.40098
 Alpha  occ. eigenvalues --   -0.39636  -0.39493  -0.39279  -0.39188  -0.38599
 Alpha  occ. eigenvalues --   -0.38437  -0.38136  -0.38045  -0.37636  -0.37549
 Alpha  occ. eigenvalues --   -0.37187  -0.37021  -0.36308  -0.35709  -0.35210
 Alpha  occ. eigenvalues --   -0.35055  -0.34637  -0.34004  -0.33203  -0.32984
 Alpha  occ. eigenvalues --   -0.32680  -0.32628  -0.32032  -0.31268  -0.29379
 Alpha  occ. eigenvalues --   -0.28867  -0.28388  -0.28015  -0.27624  -0.27315
 Alpha  occ. eigenvalues --   -0.26538  -0.24790  -0.23426  -0.23248  -0.22077
 Alpha  occ. eigenvalues --   -0.20524  -0.19980  -0.19377  -0.18785
 Alpha virt. eigenvalues --   -0.07388  -0.06845  -0.04023  -0.02380  -0.00971
 Alpha virt. eigenvalues --   -0.00332   0.00095   0.01044   0.01129   0.02222
 Alpha virt. eigenvalues --    0.03284   0.03632   0.04319   0.04443   0.04691

 Mulliken charges:
               1
     1  C   -0.326936
     2  S   -0.104965
     3  C   -0.525779
     4  C   -0.445081
     5  C   -0.424873
     6  C   -0.408818
     7  C    0.361510
     8  C   -0.066354
     9  C   -0.012055
    10  C    0.264733
    11  C   -0.396514
    12  C   -0.339648
    13  C   -0.185398
    14  C    0.275394
    15  O   -0.359565
    16  O   -0.335823
    17  C    0.175977
    18  C   -0.050879
    19  C    0.126255
    20  C    0.192521
    21  C   -0.392672
    22  C   -0.339934
    23  C   -0.255690
    24  C    0.267344
    25  C   -0.119088
    26  C    0.055568
    27  C    0.247521
    28  C   -0.387474
    29  C   -0.157928
    30  C   -0.260326
    31  C    0.079421
    32  C    0.024666
    33  C    0.032472
    34  C    0.258526
    35  C   -0.398111
    36  C   -0.334379
    37  C   -0.189895
    38  C    0.258720
    39  O   -0.313459
    40  O   -0.384706
    41  N   -0.012476
    42  N    0.006164
    43  N    0.001221
    44  N   -0.042036
    45  Fe  -0.311536
    46  H    0.161585
    47  H    0.160082
    48  H    0.158448
    49  H    0.173851
    50  H    0.342919
    51  H    0.134037
    52  H    0.150376
    53  H    0.128544
    54  H    0.086456
    55  H    0.357755
    56  H    0.102997
    57  H    0.137451
    58  H    0.145517
    59  H    0.119606
    60  H    0.134639
    61  H    0.138183
    62  H    0.123819
    63  H    0.142768
    64  H    0.129069
    65  H    0.135067
    66  H    0.143307
    67  H    0.111278
    68  H    0.122162
    69  H    0.137128
    70  H    0.139030
    71  H    0.134132
    72  H    0.122742
    73  H    0.147053
    74  H    0.135306
    75  H    0.150853
    76  H    0.141165
    77  H    0.129670
    78  H    0.136043
    79  H    0.107507
    80  H    0.120414
    81  H    0.113426
 Sum of Mulliken charges =  -0.00000

 Dipole moment (field-independent basis, Debye):
    X=              0.9122    Y=              3.3441    Z=              3.3402  Tot=              4.8137
 Quadrupole moment (field-independent basis, Debye-Ang):
   XX=           -261.6780   YY=           -261.6649   ZZ=           -271.5272
   XY=            -35.5174   XZ=             -9.5888   YZ=              6.9405

  Exact polarizability: 757.084  18.429 709.450 -67.299 -14.173 325.999
 Approx polarizability:1242.399  32.5231296.298-169.019 -28.700 555.391

 Normal termination of Gaussian 16 at Fri Sep  2 04:17:41 2022.
