 Gaussian 16, Revision A.03,
 Gaussian 16:  ES64L-G16RevA.03 25-Dec-2016

 ---------------------------------------------------------------------
 # polar def2tzvp empiricaldispersion=gd3bj int=grid=ultrafine pbe1pbe
 ---------------------------------------------------------------------

 ---------
 1qpu_II_S
 ---------
 Symbolic Z-matrix:
 Charge =  0 Multiplicity = 1

                         Standard orientation:
 ---------------------------------------------------------------------
 Center     Atomic      Atomic             Coordinates (Angstroms)
 Number     Number       Type             X           Y           Z
 ---------------------------------------------------------------------
      1          6           0        1.825752    1.252355   -3.086128
      2          6           0        1.072856   -0.076888   -2.980033
      3         16           0       -0.585717    0.082651   -2.258544
      4          6           0       -1.628464   -1.060936   -3.185511
      5          1           0        2.798313    1.079553   -3.497423
      6          1           0        1.922062    1.686380   -2.112862
      7          1           0        0.945707   -0.443544   -3.996958
      8          1           0        1.667100   -0.806443   -2.433499
      9          1           0       -1.540405   -0.814697   -4.243691
     10          1           0       -1.322463   -2.090490   -3.012380
     11          1           0       -2.664881   -0.917830   -2.881459
     12          6           0       -1.977414   -1.100435    5.408808
     13          6           0       -1.484939   -0.518347    4.102313
     14          7           0       -0.620788    0.546696    4.063641
     15          6           0       -1.814848   -0.836854    2.805355
     16          6           0       -0.447308    0.880897    2.782705
     17          7           0       -1.120563    0.052896    1.966974
     18          1           0       -2.597910   -0.384887    5.906679
     19          1           0       -1.140219   -1.340335    6.030461
     20          1           0       -0.341983    1.091086    4.866984
     21          1           0       -2.490618   -1.616519    2.488413
     22          1           0        0.158643    1.717861    2.478881
     23          6           0        2.282875   -0.649626    0.218819
     24          6           0       -0.180020    3.497667   -0.067466
     25          6           0       -4.304226    0.845468   -0.325393
     26          6           0       -1.742306   -3.326906   -0.152844
     27          6           0        1.939749    0.658979    0.232795
     28          6           0        2.921456    1.683261    0.383036
     29          6           0        2.254750    2.865283    0.265184
     30          6           0        0.846805    2.574813    0.081558
     31          6           0        2.975545    4.151039    0.295799
     32          6           0        4.404935    1.419180    0.535877
     33          6           0        5.497493    2.318467   -0.083888
     34          6           0        6.880410    2.020923    0.467145
     35          8           0        7.834465    2.127103   -0.331112
     36          8           0        6.959555    1.746295    1.684795
     37          6           0       -1.523782    3.106942   -0.161928
     38          6           0       -2.621504    4.018632   -0.378982
     39          6           0       -3.773804    3.263782   -0.449087
     40          6           0       -3.391737    1.889955   -0.282770
     41          6           0       -2.441251    5.486181   -0.635844
     42          6           0       -5.201396    3.684581   -0.685696
     43          6           0       -5.528694    5.166449   -0.680472
     44          6           0       -3.949460   -0.501653   -0.280428
     45          6           0       -4.895900   -1.583832   -0.299036
     46          6           0       -4.190791   -2.767708   -0.272216
     47          6           0       -2.792824   -2.409419   -0.200375
     48          6           0       -6.370809   -1.371547   -0.155660
     49          6           0       -4.742565   -4.179894   -0.288919
     50          6           0       -6.129119   -4.356305   -0.903264
     51          6           0       -0.418234   -2.914098   -0.105400
     52          6           0        0.734324   -3.786411   -0.095803
     53          6           0        1.840490   -3.010932    0.033151
     54          6           0        1.399861   -1.662631    0.058408
     55          6           0        0.837412   -5.259024   -0.177488
     56          6           0        3.250818   -3.445904    0.325546
     57          6           0        4.110100   -3.488562   -0.922239
     58          6           0        5.417540   -2.759492   -0.721118
     59          8           0        5.628473   -1.801759   -1.493029
     60          8           0        6.130999   -3.135153    0.231962
     61          7           0        0.727846    1.220159    0.077713
     62          7           0       -2.051753    1.844920   -0.110924
     63          7           0       -2.718290   -1.033871   -0.192189
     64          7           0        0.063509   -1.632881   -0.047847
     65         26           0       -1.018939    0.150369   -0.005700
     66          1           0        0.075072    4.543025   -0.111256
     67          1           0       -5.340214    1.118064   -0.432865
     68          1           0       -1.951486   -4.385104   -0.152369
     69          1           0        3.323438   -0.899125    0.279691
     70          1           0        3.480991    4.198865   -0.668603
     71          1           0        2.342439    5.007450    0.508034
     72          1           0        3.712627    3.982789    1.080008
     73          1           0        4.471443    0.694863   -0.223704
     74          1           0        4.652499    0.830191    1.439153
     75          1           0        5.344420    3.378278    0.027153
     76          1           0        5.514732    2.115821   -1.160325
     77          1           0       -1.598312    5.554278   -1.312171
     78          1           0       -3.292357    5.956507   -1.118765
     79          1           0       -2.200802    6.006918    0.286644
     80          1           0       -6.769641   -0.912327   -1.056347
     81          1           0       -6.913134   -2.281234    0.071009
     82          1           0       -6.456310   -0.683448    0.682002
     83          1           0        0.823853   -5.533137   -1.228122
     84          1           0        1.818200   -5.449986    0.269763
     85          1           0        0.049440   -5.749940    0.375896
     86          1           0        3.423164   -4.264495    0.988734
     87          1           0        3.637755   -2.749194    1.018136
     88          1           0        3.582229   -2.929352   -1.681898
     89          1           0        4.276615   -4.517951   -1.241859
     90          1           0        6.359481   -4.063019    0.323935
     91          1           0        8.001145    1.434598   -0.974738
     92          1           0       -5.210578    5.787468   -1.491667
     93          1           0       -6.982858   -3.915208   -0.432665
     94          1           0        1.282956    1.919922   -3.722231
     95          1           0       -2.542460   -1.987817    5.213421
     96          1           0       -6.247104   -4.921034   -1.804408
     97          1           0       -4.191055   -5.006609    0.107667
     98          1           0       -6.077576    5.590242    0.134407
     99          1           0       -5.966410    2.955537   -0.853465
 ---------------------------------------------------------------------

 SCF Done:  E(RPBE1PBE) =  -3879.19568302     A.U. after   30 cycles

 The electronic state is 1-A.
 Alpha  occ. eigenvalues -- -256.30739 -89.01059 -30.07538 -25.90339 -25.90071
 Alpha  occ. eigenvalues --  -25.89920 -19.27826 -19.25445 -19.19407 -19.18009
 Alpha  occ. eigenvalues --  -14.45096 -14.40011 -14.36840 -14.36703 -14.36402
 Alpha  occ. eigenvalues --  -14.36132 -10.36316 -10.35122 -10.28342 -10.26597
 Alpha  occ. eigenvalues --  -10.25844 -10.24912 -10.24759 -10.24476 -10.24384
 Alpha  occ. eigenvalues --  -10.24284 -10.24194 -10.24121 -10.24044 -10.23889
 Alpha  occ. eigenvalues --  -10.23289 -10.23262 -10.23262 -10.23103 -10.23059
 Alpha  occ. eigenvalues --  -10.23013 -10.22850 -10.22657 -10.22515 -10.22335
 Alpha  occ. eigenvalues --  -10.22157 -10.22056 -10.21872 -10.21798 -10.21735
 Alpha  occ. eigenvalues --  -10.21594 -10.21511 -10.21327 -10.21282 -10.21256
 Alpha  occ. eigenvalues --  -10.21151 -10.21058 -10.20771 -10.20664 -10.20616
 Alpha  occ. eigenvalues --  -10.20353 -10.19703  -7.98904  -5.92593  -5.92269
 Alpha  occ. eigenvalues --   -5.91711  -3.42108  -2.18132  -2.17480  -2.17257
 Alpha  occ. eigenvalues --   -1.18377  -1.16401  -1.05828  -1.04502  -1.02697
 Alpha  occ. eigenvalues --   -0.98368  -0.97418  -0.97249  -0.96393  -0.90825
 Alpha  occ. eigenvalues --   -0.84732  -0.83738  -0.83247  -0.82448  -0.81423
 Alpha  occ. eigenvalues --   -0.81095  -0.80990  -0.80840  -0.80666  -0.79456
 Alpha  occ. eigenvalues --   -0.78699  -0.75957  -0.75839  -0.75656  -0.74209
 Alpha  occ. eigenvalues --   -0.73475  -0.72603  -0.72401  -0.71099  -0.70408
 Alpha  occ. eigenvalues --   -0.70155  -0.69542  -0.68773  -0.67502  -0.66419
 Alpha  occ. eigenvalues --   -0.65834  -0.65398  -0.64905  -0.64742  -0.62265
 Alpha  occ. eigenvalues --   -0.61477  -0.60789  -0.59533  -0.58955  -0.58508
 Alpha  occ. eigenvalues --   -0.56247  -0.55912  -0.55042  -0.54484  -0.54366
 Alpha  occ. eigenvalues --   -0.53448  -0.53010  -0.52333  -0.51856  -0.51530
 Alpha  occ. eigenvalues --   -0.51360  -0.50304  -0.49634  -0.48703  -0.48432
 Alpha  occ. eigenvalues --   -0.48265  -0.48072  -0.47836  -0.47767  -0.47531
 Alpha  occ. eigenvalues --   -0.46689  -0.45885  -0.45641  -0.45065  -0.44830
 Alpha  occ. eigenvalues --   -0.44745  -0.44559  -0.44330  -0.43959  -0.43858
 Alpha  occ. eigenvalues --   -0.43724  -0.43452  -0.43302  -0.43289  -0.43090
 Alpha  occ. eigenvalues --   -0.42967  -0.42671  -0.42517  -0.42428  -0.42284
 Alpha  occ. eigenvalues --   -0.41970  -0.41527  -0.41269  -0.41077  -0.40923
 Alpha  occ. eigenvalues --   -0.40782  -0.40275  -0.40141  -0.39792  -0.39599
 Alpha  occ. eigenvalues --   -0.39411  -0.39043  -0.38293  -0.38167  -0.37992
 Alpha  occ. eigenvalues --   -0.37905  -0.37566  -0.37340  -0.37073  -0.36820
 Alpha  occ. eigenvalues --   -0.36396  -0.36143  -0.35570  -0.35351  -0.35207
 Alpha  occ. eigenvalues --   -0.34938  -0.34598  -0.34294  -0.33758  -0.33315
 Alpha  occ. eigenvalues --   -0.32797  -0.32455  -0.31952  -0.31607  -0.29984
 Alpha  occ. eigenvalues --   -0.29481  -0.29181  -0.28721  -0.28452  -0.28308
 Alpha  occ. eigenvalues --   -0.27601  -0.26509  -0.26233  -0.24866  -0.24348
 Alpha  occ. eigenvalues --   -0.23536  -0.21898  -0.20141  -0.19950  -0.19432
 Alpha  occ. eigenvalues --   -0.18902  -0.18014  -0.17479  -0.16396
 Alpha virt. eigenvalues --   -0.08672  -0.08367  -0.05871  -0.05295  -0.01853
 Alpha virt. eigenvalues --   -0.00814  -0.00080   0.01175   0.01517   0.02147
 Alpha virt. eigenvalues --    0.02916   0.02952   0.03986   0.04510   0.04533

 Mulliken charges:
               1
     1  C   -0.323391
     2  C   -0.163534
     3  S    0.009387
     4  C   -0.390649
     5  H    0.115756
     6  H    0.127016
     7  H    0.123599
     8  H    0.124592
     9  H    0.148554
    10  H    0.138558
    11  H    0.164980
    12  C   -0.393923
    13  C    0.164552
    14  N   -0.216959
    15  C   -0.208929
    16  C    0.016010
    17  N    0.094903
    18  H    0.138932
    19  H    0.136132
    20  H    0.241681
    21  H    0.147249
    22  H    0.170052
    23  C   -0.416823
    24  C   -0.555434
    25  C   -0.538457
    26  C   -0.552294
    27  C    0.155736
    28  C    0.028280
    29  C    0.029237
    30  C    0.219409
    31  C   -0.478463
    32  C   -0.270149
    33  C   -0.288556
    34  C    0.315692
    35  O   -0.350153
    36  O   -0.341333
    37  C    0.248384
    38  C   -0.074133
    39  C   -0.042109
    40  C    0.275939
    41  C   -0.352509
    42  C   -0.113338
    43  C   -0.402053
    44  C    0.203776
    45  C   -0.023298
    46  C    0.012461
    47  C    0.218585
    48  C   -0.375779
    49  C   -0.191400
    50  C   -0.340751
    51  C    0.253930
    52  C   -0.015609
    53  C   -0.073680
    54  C    0.137335
    55  C   -0.410833
    56  C   -0.362787
    57  C   -0.230325
    58  C    0.313586
    59  O   -0.372861
    60  O   -0.313682
    61  N   -0.052613
    62  N    0.106265
    63  N   -0.034599
    64  N    0.010164
    65  Fe  -0.286643
    66  H    0.124167
    67  H    0.106776
    68  H    0.100793
    69  H    0.134342
    70  H    0.154188
    71  H    0.125605
    72  H    0.156799
    73  H    0.130262
    74  H    0.165216
    75  H    0.139245
    76  H    0.119031
    77  H    0.134414
    78  H    0.112357
    79  H    0.125766
    80  H    0.133728
    81  H    0.111917
    82  H    0.137332
    83  H    0.139319
    84  H    0.118401
    85  H    0.123129
    86  H    0.133701
    87  H    0.159088
    88  H    0.134910
    89  H    0.121909
    90  H    0.354576
    91  H    0.361198
    92  H    0.148574
    93  H    0.139044
    94  H    0.111858
    95  H    0.144331
    96  H    0.142519
    97  H    0.145809
    98  H    0.140552
    99  H    0.136463
 Sum of Mulliken charges =  -0.00000

 Dipole moment (field-independent basis, Debye):
    X=              2.0886    Y=             -4.3484    Z=              2.1047  Tot=              5.2631
 Quadrupole moment (field-independent basis, Debye-Ang):
   XX=           -340.6646   YY=           -301.7789   ZZ=           -299.2280
   XY=            -22.9113   XZ=            -23.2018   YZ=             -2.0643

  Exact polarizability: 945.053 -12.216 870.235  37.516  -7.100 427.371
 Approx polarizability:1693.803 -30.4661700.797 115.619  -3.960 688.170

 Normal termination of Gaussian 16 at Sat Jan  7 09:07:56 2023.
