 Gaussian 16, Revision A.03,
 Gaussian 16:  ES64L-G16RevA.03 25-Dec-2016

 ---------------------------------------------------------------------
 # polar def2tzvp empiricaldispersion=gd3bj int=grid=ultrafine pbe1pbe
 ---------------------------------------------------------------------

 ---------
 1v9z_II_S
 ---------
 Symbolic Z-matrix:
 Charge =  0 Multiplicity = 1

                         Standard orientation:
 ---------------------------------------------------------------------
 Center     Atomic      Atomic             Coordinates (Angstroms)
 Number     Number       Type             X           Y           Z
 ---------------------------------------------------------------------
      1          6           0       -1.019168   -1.747399    5.738958
      2          6           0       -1.168603   -1.001847    4.456259
      3          7           0       -1.568029    0.318277    4.397167
      4          6           0       -0.907198   -1.367261    3.178011
      5          6           0       -1.541393    0.729924    3.146551
      6          7           0       -1.143511   -0.272439    2.384679
      7          6           0        1.228197   -0.589128   -4.343385
      8          6           0        1.219608   -0.328195   -2.856001
      9         16           0       -0.421380    0.135760   -2.287965
     10          6           0       -0.792932    1.531362   -3.384480
     11          6           0        2.540093    0.103619    0.840055
     12          6           0       -0.792142   -3.375655    0.013903
     13          6           0       -4.187074    0.020729   -0.605871
     14          6           0       -0.922889    3.497158    0.233965
     15          6           0        1.908103   -1.172080    0.654938
     16          6           0        2.619736   -2.456658    0.730062
     17          6           0        1.667479   -3.438699    0.495992
     18          6           0        0.412811   -2.750995    0.284688
     19          6           0        1.910523   -4.967632    0.469612
     20          6           0        4.114981   -2.642235    1.055296
     21          6           0        4.876901   -3.358795   -0.059904
     22          6           0        4.900054   -2.601197   -1.373977
     23          8           0        4.619586   -3.232224   -2.399821
     24          8           0        5.190773   -1.385680   -1.367860
     25          6           0       -1.998920   -2.755734   -0.212301
     26          6           0       -3.207894   -3.461734   -0.511076
     27          6           0       -4.224195   -2.533943   -0.697647
     28          6           0       -3.552426   -1.219379   -0.503359
     29          6           0       -3.295481   -5.009206   -0.599415
     30          6           0       -5.588539   -2.842082   -1.007481
     31          6           0       -6.182566   -3.809838   -1.868088
     32          6           0       -3.578048    1.262208   -0.434121
     33          6           0       -4.321989    2.518002   -0.583088
     34          6           0       -3.388703    3.531811   -0.340072
     35          6           0       -2.118013    2.847366   -0.059086
     36          6           0       -5.827472    2.618320   -0.936250
     37          6           0       -3.542526    4.963135   -0.343962
     38          6           0       -4.345293    5.806409   -1.151182
     39          6           0        0.299517    2.887338    0.487733
     40          6           0        1.525945    3.606787    0.773643
     41          6           0        2.493728    2.655339    0.939541
     42          6           0        1.853293    1.354005    0.755109
     43          6           0        1.719742    5.133688    0.871632
     44          6           0        3.964258    2.895250    1.244541
     45          6           0        4.604627    3.220737   -0.095753
     46          6           0        5.837873    2.405727   -0.396223
     47          8           0        6.895161    3.027916   -0.661742
     48          8           0        5.736587    1.152034   -0.371565
     49          7           0        0.567293   -1.373770    0.383994
     50          7           0       -2.201624   -1.358320   -0.196076
     51          7           0       -2.240961    1.446793   -0.117938
     52          7           0        0.508459    1.506994    0.482033
     53         26           0       -0.795503    0.049280    0.196232
     54          1           0       -1.851856    1.608569   -3.517221
     55          1           0       -0.421137    2.435508   -2.949522
     56          1           0       -0.325050    1.373527   -4.333730
     57          1           0        0.296617   -0.275278   -4.765943
     58          1           0        2.027972   -0.041789   -4.796906
     59          1           0        1.366090   -1.635201   -4.521194
     60          1           0        1.530833   -1.214024   -2.342830
     61          1           0        1.904102    0.463985   -2.635049
     62          1           0       -1.515037   -2.692439    5.662060
     63          1           0        0.019702   -1.905104    5.940891
     64          1           0       -1.454940   -1.179640    6.534353
     65          1           0       -1.836197    0.875882    5.182764
     66          1           0       -1.798698    1.710907    2.805425
     67          1           0       -0.577745   -2.330399    2.848277
     68          1           0       -5.147675    6.361673   -0.712131
     69          1           0       -4.149206    5.888032   -2.199889
     70          1           0       -2.951218    5.476343    0.385335
     71          1           0       -6.162757    1.684646   -1.337171
     72          1           0       -6.386356    2.848644   -0.053357
     73          1           0       -5.972840    3.390938   -1.662080
     74          1           0       -5.231946    0.017039   -0.836367
     75          1           0       -6.995021   -3.531309   -2.506240
     76          1           0       -5.816215   -4.815135   -1.876234
     77          1           0       -6.297808   -2.227255   -0.493843
     78          1           0       -3.811148   -5.286714   -1.494946
     79          1           0       -2.308447   -5.422075   -0.613679
     80          1           0       -3.827214   -5.385388    0.249494
     81          1           0       -0.784137   -4.444986   -0.023074
     82          1           0        1.466450   -5.384240   -0.410239
     83          1           0        2.962806   -5.161459    0.464034
     84          1           0        1.470270   -5.413776    1.336810
     85          1           0        4.203859   -3.213210    1.955845
     86          1           0        4.556096   -1.679960    1.211325
     87          1           0        5.885638   -3.513232    0.261810
     88          1           0        4.421262   -4.312763   -0.224942
     89          1           0        4.623841   -0.754282   -1.816776
     90          1           0        4.991246    0.722219   -0.797389
     91          1           0        3.884953    3.047124   -0.868299
     92          1           0        4.870910    4.257045   -0.103399
     93          1           0        4.404954    2.013982    1.661737
     94          1           0        4.073578    3.719786    1.917661
     95          1           0        0.763941    5.614540    0.882781
     96          1           0        2.247971    5.369127    1.771878
     97          1           0        2.281769    5.476736    0.028220
     98          1           0       -0.947606    4.566364    0.266958
     99          1           0        3.588268    0.119158    1.054501
 ---------------------------------------------------------------------

 SCF Done:  E(RPBE1PBE) =  -3879.30653826     A.U. after   24 cycles

 The electronic state is 1-A.
 Alpha  occ. eigenvalues -- -256.32584 -89.02376 -30.09296 -25.92176 -25.91763
 Alpha  occ. eigenvalues --  -25.91690 -19.27502 -19.26797 -19.18498 -19.18039
 Alpha  occ. eigenvalues --  -14.45398 -14.39319 -14.38459 -14.38060 -14.37924
 Alpha  occ. eigenvalues --  -14.37895 -10.35812 -10.35291 -10.28377 -10.26710
 Alpha  occ. eigenvalues --  -10.25953 -10.25793 -10.25765 -10.25579 -10.25359
 Alpha  occ. eigenvalues --  -10.25354 -10.25020 -10.24608 -10.24549 -10.24274
 Alpha  occ. eigenvalues --  -10.24086 -10.24003 -10.23958 -10.23934 -10.23693
 Alpha  occ. eigenvalues --  -10.23669 -10.23537 -10.23454 -10.23388 -10.23378
 Alpha  occ. eigenvalues --  -10.23323 -10.23225 -10.22964 -10.22930 -10.22894
 Alpha  occ. eigenvalues --  -10.22763 -10.22758 -10.22416 -10.22277 -10.22188
 Alpha  occ. eigenvalues --  -10.22132 -10.22122 -10.22071 -10.21962 -10.21599
 Alpha  occ. eigenvalues --  -10.21514 -10.20910  -8.00186  -5.93871  -5.93553
 Alpha  occ. eigenvalues --   -5.92984  -3.43929  -2.19975  -2.19209  -2.19073
 Alpha  occ. eigenvalues --   -1.18360  -1.16946  -1.07251  -1.03892  -1.02654
 Alpha  occ. eigenvalues --   -0.97380  -0.96516  -0.96200  -0.95125  -0.91302
 Alpha  occ. eigenvalues --   -0.84792  -0.84619  -0.84194  -0.83305  -0.82383
 Alpha  occ. eigenvalues --   -0.82298  -0.82048  -0.80978  -0.80733  -0.79283
 Alpha  occ. eigenvalues --   -0.78722  -0.76943  -0.76827  -0.76001  -0.75271
 Alpha  occ. eigenvalues --   -0.73982  -0.73397  -0.73198  -0.71992  -0.71538
 Alpha  occ. eigenvalues --   -0.71451  -0.69740  -0.69178  -0.68792  -0.67592
 Alpha  occ. eigenvalues --   -0.66386  -0.65665  -0.65211  -0.65076  -0.62964
 Alpha  occ. eigenvalues --   -0.62419  -0.61951  -0.60530  -0.59140  -0.57796
 Alpha  occ. eigenvalues --   -0.57251  -0.56217  -0.55394  -0.54706  -0.54051
 Alpha  occ. eigenvalues --   -0.53295  -0.53219  -0.52299  -0.51966  -0.51783
 Alpha  occ. eigenvalues --   -0.51375  -0.50497  -0.49750  -0.49479  -0.49287
 Alpha  occ. eigenvalues --   -0.48785  -0.48726  -0.48584  -0.48375  -0.48252
 Alpha  occ. eigenvalues --   -0.47956  -0.46533  -0.45873  -0.45767  -0.45471
 Alpha  occ. eigenvalues --   -0.45402  -0.44834  -0.44754  -0.44582  -0.44422
 Alpha  occ. eigenvalues --   -0.44224  -0.44144  -0.43982  -0.43947  -0.43846
 Alpha  occ. eigenvalues --   -0.43514  -0.43411  -0.43037  -0.42695  -0.42583
 Alpha  occ. eigenvalues --   -0.42354  -0.42200  -0.42129  -0.41921  -0.41711
 Alpha  occ. eigenvalues --   -0.41324  -0.41061  -0.40695  -0.40234  -0.40196
 Alpha  occ. eigenvalues --   -0.40033  -0.39627  -0.39519  -0.39352  -0.38793
 Alpha  occ. eigenvalues --   -0.38643  -0.38428  -0.38367  -0.37822  -0.37570
 Alpha  occ. eigenvalues --   -0.37481  -0.36978  -0.36596  -0.36400  -0.36110
 Alpha  occ. eigenvalues --   -0.35800  -0.35573  -0.35411  -0.33998  -0.33219
 Alpha  occ. eigenvalues --   -0.33093  -0.32994  -0.32770  -0.32493  -0.32273
 Alpha  occ. eigenvalues --   -0.31463  -0.30973  -0.28844  -0.28619  -0.28305
 Alpha  occ. eigenvalues --   -0.27892  -0.27162  -0.27069  -0.25671  -0.25164
 Alpha  occ. eigenvalues --   -0.24827  -0.23434  -0.22026  -0.21495  -0.20836
 Alpha  occ. eigenvalues --   -0.19692  -0.19394  -0.19350  -0.18473
 Alpha virt. eigenvalues --   -0.08760  -0.08018  -0.05910  -0.04025  -0.03588
 Alpha virt. eigenvalues --   -0.00718  -0.00379  -0.00100   0.00949   0.01960
 Alpha virt. eigenvalues --    0.02071   0.03230   0.03739   0.03962   0.04166

 Mulliken charges:
               1
     1  C   -0.356449
     2  C    0.130146
     3  N   -0.215129
     4  C   -0.155946
     5  C    0.029850
     6  N   -0.113503
     7  C   -0.339408
     8  C   -0.187697
     9  S   -0.002330
    10  C   -0.384502
    11  C   -0.749468
    12  C   -0.498428
    13  C   -0.469074
    14  C   -0.565366
    15  C    0.300837
    16  C   -0.065918
    17  C   -0.061461
    18  C    0.156133
    19  C   -0.376587
    20  C   -0.231936
    21  C   -0.146150
    22  C    0.265339
    23  O   -0.346507
    24  O   -0.334597
    25  C    0.379085
    26  C   -0.086530
    27  C    0.031069
    28  C    0.188027
    29  C   -0.387384
    30  C   -0.228349
    31  C   -0.299859
    32  C    0.334605
    33  C   -0.124223
    34  C    0.084171
    35  C    0.225529
    36  C   -0.377832
    37  C   -0.223014
    38  C   -0.366043
    39  C    0.350324
    40  C   -0.131247
    41  C   -0.048576
    42  C    0.296534
    43  C   -0.411385
    44  C   -0.203254
    45  C   -0.277691
    46  C    0.293533
    47  O   -0.347606
    48  O   -0.276988
    49  N    0.023067
    50  N    0.010517
    51  N   -0.054349
    52  N    0.028472
    53  Fe  -0.236672
    54  H    0.159259
    55  H    0.149770
    56  H    0.148795
    57  H    0.123374
    58  H    0.115189
    59  H    0.139153
    60  H    0.158917
    61  H    0.091997
    62  H    0.148474
    63  H    0.147122
    64  H    0.117545
    65  H    0.229007
    66  H    0.172158
    67  H    0.144906
    68  H    0.145056
    69  H    0.143391
    70  H    0.122506
    71  H    0.128907
    72  H    0.137902
    73  H    0.149874
    74  H    0.093766
    75  H    0.141912
    76  H    0.133364
    77  H    0.123959
    78  H    0.125450
    79  H    0.120942
    80  H    0.146717
    81  H    0.100373
    82  H    0.143089
    83  H    0.112445
    84  H    0.138073
    85  H    0.131364
    86  H    0.124737
    87  H    0.124510
    88  H    0.107347
    89  H    0.331967
    90  H    0.291255
    91  H    0.148721
    92  H    0.123628
    93  H    0.140445
    94  H    0.131089
    95  H    0.129115
    96  H    0.134272
    97  H    0.144065
    98  H    0.090633
    99  H    0.147676
 Sum of Mulliken charges =  -0.00000

 Dipole moment (field-independent basis, Debye):
    X=             -4.8233    Y=             -0.2941    Z=              6.2606  Tot=              7.9086
 Quadrupole moment (field-independent basis, Debye-Ang):
   XX=           -372.1400   YY=           -320.3326   ZZ=           -291.4532
   XY=            -14.2380   XZ=              6.7613   YZ=             -8.5730

  Exact polarizability: 861.002 -15.614 873.560  84.000  -4.651 454.143
 Approx polarizability:1508.912 -41.2331644.660 212.574   2.064 713.168

 Normal termination of Gaussian 16 at Sun Jan 15 22:36:22 2023.
