 Gaussian 16, Revision A.03,
 Gaussian 16:  ES64L-G16RevA.03 25-Dec-2016

 ----------------------------------------------------------------------
 # PBE1PBE/def2TZVP scf=qc empiricaldispersion=GD3BJ scf=maxcycle=999 g
 eom=check pop=nbo
 ----------------------------------------------------------------------

 ---------
 1v9z_II_Q
 ---------
 Structure from the checkpoint file:  "1v9z_II_Q.chk"
 Charge =  0 Multiplicity = 5

                         Standard orientation:
 ---------------------------------------------------------------------
 Center     Atomic      Atomic             Coordinates (Angstroms)
 Number     Number       Type             X           Y           Z
 ---------------------------------------------------------------------
      1          6           0       -1.019168   -1.747399    5.738958
      2          6           0       -1.168603   -1.001847    4.456259
      3          7           0       -1.568029    0.318277    4.397167
      4          6           0       -0.907198   -1.367261    3.178011
      5          6           0       -1.541393    0.729924    3.146551
      6          7           0       -1.143511   -0.272439    2.384679
      7          6           0        1.228197   -0.589128   -4.343385
      8          6           0        1.219608   -0.328195   -2.856001
      9         16           0       -0.421380    0.135760   -2.287965
     10          6           0       -0.792932    1.531362   -3.384480
     11          6           0        2.540093    0.103619    0.840055
     12          6           0       -0.792142   -3.375655    0.013903
     13          6           0       -4.187074    0.020729   -0.605871
     14          6           0       -0.922889    3.497158    0.233965
     15          6           0        1.908103   -1.172080    0.654938
     16          6           0        2.619736   -2.456658    0.730062
     17          6           0        1.667479   -3.438699    0.495992
     18          6           0        0.412811   -2.750995    0.284688
     19          6           0        1.910523   -4.967632    0.469612
     20          6           0        4.114981   -2.642235    1.055296
     21          6           0        4.876901   -3.358795   -0.059904
     22          6           0        4.900054   -2.601197   -1.373977
     23          8           0        4.619586   -3.232224   -2.399821
     24          8           0        5.190773   -1.385680   -1.367860
     25          6           0       -1.998920   -2.755734   -0.212301
     26          6           0       -3.207894   -3.461734   -0.511076
     27          6           0       -4.224195   -2.533943   -0.697647
     28          6           0       -3.552426   -1.219379   -0.503359
     29          6           0       -3.295481   -5.009206   -0.599415
     30          6           0       -5.588539   -2.842082   -1.007481
     31          6           0       -6.182566   -3.809838   -1.868088
     32          6           0       -3.578048    1.262208   -0.434121
     33          6           0       -4.321989    2.518002   -0.583088
     34          6           0       -3.388703    3.531811   -0.340072
     35          6           0       -2.118013    2.847366   -0.059086
     36          6           0       -5.827472    2.618320   -0.936250
     37          6           0       -3.542526    4.963135   -0.343962
     38          6           0       -4.345293    5.806409   -1.151182
     39          6           0        0.299517    2.887338    0.487733
     40          6           0        1.525945    3.606787    0.773643
     41          6           0        2.493728    2.655339    0.939541
     42          6           0        1.853293    1.354005    0.755109
     43          6           0        1.719742    5.133688    0.871632
     44          6           0        3.964258    2.895250    1.244541
     45          6           0        4.604627    3.220737   -0.095753
     46          6           0        5.837873    2.405727   -0.396223
     47          8           0        6.895161    3.027916   -0.661742
     48          8           0        5.736587    1.152034   -0.371565
     49          7           0        0.567293   -1.373770    0.383994
     50          7           0       -2.201624   -1.358320   -0.196076
     51          7           0       -2.240961    1.446793   -0.117938
     52          7           0        0.508459    1.506994    0.482033
     53         26           0       -0.795503    0.049280    0.196232
     54          1           0       -1.851856    1.608569   -3.517221
     55          1           0       -0.421137    2.435508   -2.949522
     56          1           0       -0.325050    1.373527   -4.333730
     57          1           0        0.296617   -0.275278   -4.765943
     58          1           0        2.027972   -0.041789   -4.796906
     59          1           0        1.366090   -1.635201   -4.521194
     60          1           0        1.530833   -1.214024   -2.342830
     61          1           0        1.904102    0.463985   -2.635049
     62          1           0       -1.515037   -2.692439    5.662060
     63          1           0        0.019702   -1.905104    5.940891
     64          1           0       -1.454940   -1.179640    6.534353
     65          1           0       -1.836197    0.875882    5.182764
     66          1           0       -1.798698    1.710907    2.805425
     67          1           0       -0.577745   -2.330399    2.848277
     68          1           0       -5.147675    6.361673   -0.712131
     69          1           0       -4.149206    5.888032   -2.199889
     70          1           0       -2.951218    5.476343    0.385335
     71          1           0       -6.162757    1.684646   -1.337171
     72          1           0       -6.386356    2.848644   -0.053357
     73          1           0       -5.972840    3.390938   -1.662080
     74          1           0       -5.231946    0.017039   -0.836367
     75          1           0       -6.995021   -3.531309   -2.506240
     76          1           0       -5.816215   -4.815135   -1.876234
     77          1           0       -6.297808   -2.227255   -0.493843
     78          1           0       -3.811148   -5.286714   -1.494946
     79          1           0       -2.308447   -5.422075   -0.613679
     80          1           0       -3.827214   -5.385388    0.249494
     81          1           0       -0.784137   -4.444986   -0.023074
     82          1           0        1.466450   -5.384240   -0.410239
     83          1           0        2.962806   -5.161459    0.464034
     84          1           0        1.470270   -5.413776    1.336810
     85          1           0        4.203859   -3.213210    1.955845
     86          1           0        4.556096   -1.679960    1.211325
     87          1           0        5.885638   -3.513232    0.261810
     88          1           0        4.421262   -4.312763   -0.224942
     89          1           0        4.623841   -0.754282   -1.816776
     90          1           0        4.991246    0.722219   -0.797389
     91          1           0        3.884953    3.047124   -0.868299
     92          1           0        4.870910    4.257045   -0.103399
     93          1           0        4.404954    2.013982    1.661737
     94          1           0        4.073578    3.719786    1.917661
     95          1           0        0.763941    5.614540    0.882781
     96          1           0        2.247971    5.369127    1.771878
     97          1           0        2.281769    5.476736    0.028220
     98          1           0       -0.947606    4.566364    0.266958
     99          1           0        3.588268    0.119158    1.054501
 ---------------------------------------------------------------------

 SCF Done:  E(UPBE1PBE) =  -3879.29603200     a.u. after   40 cycles

 Alpha virt. eigenvalues --    1.00178   1.00456   1.01069   1.01148   1.01523
 Alpha virt. eigenvalues --    1.01690   1.01955   1.02338   1.02624   1.02788
 Alpha virt. eigenvalues --    1.03021   1.03267   1.03450   1.03860   1.04137

  Beta  occ. eigenvalues -- -256.33081 -89.00767 -30.07602 -25.91298 -25.90974
  Beta  occ. eigenvalues --  -25.89321 -19.27376 -19.26744 -19.18372 -19.18007
  Beta  occ. eigenvalues --  -14.44931 -14.38622 -14.38156 -14.37832 -14.37652
  Beta  occ. eigenvalues --  -14.37651 -10.35693 -10.35263 -10.27847 -10.26231
  Beta  occ. eigenvalues --  -10.25965 -10.25889 -10.25739 -10.25603 -10.25552
  Beta  occ. eigenvalues --  -10.25378 -10.25127 -10.24780 -10.24131 -10.23897
  Beta  occ. eigenvalues --  -10.23706 -10.23632 -10.23541 -10.23493 -10.23473
  Beta  occ. eigenvalues --  -10.23371 -10.23343 -10.23329 -10.23256 -10.23174
  Beta  occ. eigenvalues --  -10.23128 -10.23103 -10.23064 -10.22945 -10.22862
  Beta  occ. eigenvalues --  -10.22757 -10.22574 -10.22534 -10.22168 -10.22047
  Beta  occ. eigenvalues --  -10.21987 -10.21974 -10.21892 -10.21840 -10.21819
  Beta  occ. eigenvalues --  -10.21542 -10.20297  -7.98685  -5.92380  -5.92045
  Beta  occ. eigenvalues --   -5.91436  -3.39749  -2.16936  -2.15861  -2.11591
  Beta  occ. eigenvalues --   -1.18236  -1.16894  -1.06643  -1.03766  -1.02618
  Beta  occ. eigenvalues --   -0.97434  -0.96560  -0.96253  -0.95177  -0.90563
  Beta  occ. eigenvalues --   -0.84659  -0.84141  -0.83904  -0.83222  -0.82363
  Beta  occ. eigenvalues --   -0.81862  -0.81645  -0.80942  -0.80648  -0.79227
  Beta  occ. eigenvalues --   -0.78705  -0.76714  -0.76053  -0.75599  -0.75162
  Beta  occ. eigenvalues --   -0.73843  -0.73158  -0.72923  -0.71904  -0.71464
  Beta  occ. eigenvalues --   -0.71384  -0.69745  -0.69143  -0.68057  -0.67577
  Beta  occ. eigenvalues --   -0.66313  -0.65574  -0.65041  -0.64596  -0.62471
  Beta  occ. eigenvalues --   -0.62343  -0.61151  -0.59793  -0.59098  -0.57774
  Beta  occ. eigenvalues --   -0.56773  -0.56179  -0.55364  -0.54702  -0.53919
  Beta  occ. eigenvalues --   -0.53268  -0.53143  -0.52222  -0.51972  -0.51733
  Beta  occ. eigenvalues --   -0.51326  -0.50477  -0.49701  -0.49290  -0.48844
  Beta  occ. eigenvalues --   -0.48620  -0.48398  -0.48284  -0.47984  -0.47910
  Beta  occ. eigenvalues --   -0.47584  -0.46480  -0.45829  -0.45721  -0.45287
  Beta  occ. eigenvalues --   -0.45221  -0.44841  -0.44626  -0.44311  -0.44115
  Beta  occ. eigenvalues --   -0.44088  -0.43966  -0.43708  -0.43646  -0.43488
  Beta  occ. eigenvalues --   -0.43465  -0.43306  -0.42758  -0.42651  -0.42483
  Beta  occ. eigenvalues --   -0.42291  -0.42134  -0.42011  -0.41719  -0.41598
  Beta  occ. eigenvalues --   -0.41182  -0.40932  -0.40236  -0.40151  -0.39973
  Beta  occ. eigenvalues --   -0.39932  -0.39580  -0.39410  -0.39271  -0.38762
  Beta  occ. eigenvalues --   -0.38565  -0.38341  -0.37929  -0.37721  -0.37532
  Beta  occ. eigenvalues --   -0.37448  -0.36917  -0.36414  -0.36118  -0.35935
  Beta  occ. eigenvalues --   -0.35769  -0.35550  -0.35364  -0.33880  -0.33107
  Beta  occ. eigenvalues --   -0.32977  -0.32658  -0.32514  -0.32099  -0.32018
  Beta  occ. eigenvalues --   -0.31263  -0.30503  -0.28781  -0.28420  -0.28160
  Beta  occ. eigenvalues --   -0.27695  -0.26765  -0.26117  -0.25074  -0.24756
  Beta  occ. eigenvalues --   -0.24279  -0.22694  -0.21495  -0.20709  -0.19327
  Beta  occ. eigenvalues --   -0.19186  -0.16519
  Beta virt. eigenvalues --   -0.09643  -0.08158  -0.07183  -0.04576  -0.03522
  Beta virt. eigenvalues --   -0.02837  -0.00617  -0.00042   0.00451   0.01134
  Beta virt. eigenvalues --    0.02132   0.02629   0.03427   0.03734   0.03968

 Mulliken charges and spin densities:
               1          2
     1  C   -0.357465   0.000885
     2  C    0.129091   0.002928
     3  N   -0.216408   0.000710
     4  C   -0.156130   0.000278
     5  C    0.029233   0.003391
     6  N   -0.138091   0.030824
     7  C   -0.338392   0.001415
     8  C   -0.186281   0.001912
     9  S   -0.023462   0.041619
    10  C   -0.387743   0.004818
    11  C   -0.740180  -0.030797
    12  C   -0.506607  -0.024701
    13  C   -0.473752   0.093792
    14  C   -0.584540  -0.016508
    15  C    0.299345  -0.009872
    16  C   -0.060289   0.024796
    17  C   -0.065569  -0.023905
    18  C    0.162497   0.023928
    19  C   -0.377253   0.001368
    20  C   -0.231966  -0.001933
    21  C   -0.146728  -0.000276
    22  C    0.265968   0.000681
    23  O   -0.346001  -0.000081
    24  O   -0.335470  -0.000068
    25  C    0.386829   0.024966
    26  C   -0.085493  -0.058895
    27  C    0.033955   0.061155
    28  C    0.193869  -0.062174
    29  C   -0.387193   0.003642
    30  C   -0.227724  -0.108034
    31  C   -0.295405   0.134540
    32  C    0.335600  -0.099615
    33  C   -0.113727   0.339512
    34  C    0.024381  -0.201878
    35  C    0.235194   0.034533
    36  C   -0.382043  -0.021594
    37  C   -0.186442   0.677199
    38  C   -0.301037   1.026271
    39  C    0.365431   0.016056
    40  C   -0.133731  -0.012553
    41  C   -0.041747   0.021038
    42  C    0.293997  -0.006816
    43  C   -0.411794   0.000686
    44  C   -0.202880  -0.001560
    45  C   -0.278199   0.000922
    46  C    0.293796   0.000149
    47  O   -0.347644   0.000101
    48  O   -0.277189  -0.000023
    49  N    0.018158  -0.039048
    50  N   -0.018071  -0.011026
    51  N   -0.059074   0.028241
    52  N    0.001542  -0.042769
    53  Fe  -0.151729   2.158383
    54  H    0.154034  -0.000073
    55  H    0.145191   0.000231
    56  H    0.143282   0.003713
    57  H    0.123600  -0.000065
    58  H    0.111378   0.000747
    59  H    0.135959   0.000346
    60  H    0.155646  -0.000277
    61  H    0.088356   0.000558
    62  H    0.147304   0.000016
    63  H    0.145956   0.000047
    64  H    0.116405   0.000050
    65  H    0.225547   0.001586
    66  H    0.168033   0.000848
    67  H    0.141235   0.000711
    68  H    0.142680  -0.017030
    69  H    0.144702  -0.011415
    70  H    0.125444   0.018961
    71  H    0.128295   0.003479
    72  H    0.141136   0.013160
    73  H    0.141422   0.007861
    74  H    0.091681  -0.004630
    75  H    0.142630  -0.007723
    76  H    0.134328  -0.007597
    77  H    0.124754   0.006928
    78  H    0.125172  -0.001286
    79  H    0.121995  -0.000326
    80  H    0.146873  -0.002080
    81  H    0.099958   0.000857
    82  H    0.142709  -0.000798
    83  H    0.111946  -0.000180
    84  H    0.137743  -0.000918
    85  H    0.131708   0.001000
    86  H    0.124597   0.000101
    87  H    0.124396   0.000118
    88  H    0.107531   0.000000
    89  H    0.332889   0.000070
    90  H    0.291942  -0.000152
    91  H    0.150175  -0.000032
    92  H    0.123362   0.000060
    93  H    0.141154   0.000105
    94  H    0.131149   0.000310
    95  H    0.128606   0.000017
    96  H    0.133876  -0.000279
    97  H    0.143907  -0.000489
    98  H    0.086766   0.005365
    99  H    0.147113   0.001492
 Sum of Mulliken charges =   0.00000   4.00000

 Dipole moment (field-independent basis, Debye):
    X=             -5.6524    Y=              0.6639    Z=              6.2323  Tot=              8.4399
 Quadrupole moment (field-independent basis, Debye-Ang):
   XX=           -367.8050   YY=           -312.8100   ZZ=           -295.8657
   XY=            -18.0277   XZ=              8.8251   YZ=             -8.7079

 Summary of Natural Population Analysis:

                                       Natural Population
                Natural  -----------------------------------------------
    Atom  No    Charge         Core      Valence    Rydberg      Total
 -----------------------------------------------------------------------
      C    1   -0.31924      0.99969     2.31633    0.00322     3.31924
      C    2    0.04800      0.99954     1.94304    0.00942     2.95200
      N    3   -0.23933      0.99968     2.72921    0.01045     3.73933
      C    4   -0.03624      0.99944     2.02720    0.00960     3.03624
      C    5    0.09283      0.99967     1.89627    0.01122     2.90717
      N    6   -0.17166      0.99973     2.64881    0.02312     3.67166
      C    7   -0.30932      0.99973     2.30556    0.00404     3.30932
      C    8   -0.26741      0.99966     2.25859    0.00917     3.26741
      S    9    0.24373      4.99952     2.73552    0.02122     7.75627
      C   10   -0.36916      0.99964     2.36491    0.00461     3.36916
      C   11   -0.14581      0.99954     2.13736    0.00891     3.14581
      C   12   -0.12643      0.99947     2.11850    0.00846     3.12643
      C   13   -0.07695      0.99949     2.06923    0.00823     3.07695
      C   14   -0.14237      0.99949     2.13468    0.00821     3.14237
      C   15    0.05863      0.99955     1.93058    0.01124     2.94137
      C   16   -0.01084      0.99946     2.00186    0.00952     3.01084
      C   17   -0.02673      0.99944     2.01897    0.00833     3.02673
      C   18    0.07790      0.99950     1.91183    0.01076     2.92210
      C   19   -0.31568      0.99969     2.31237    0.00362     3.31568
      C   20   -0.21369      0.99966     2.20698    0.00706     3.21369
      C   21   -0.24739      0.99962     2.23950    0.00827     3.24739
      C   22    0.38712      0.99976     1.59498    0.01814     2.61288
      O   23   -0.28867      0.99989     3.27647    0.01232     4.28867
      O   24   -0.33762      0.99979     3.32351    0.01432     4.33762
      C   25    0.08078      0.99948     1.90937    0.01036     2.91922
      C   26   -0.01612      0.99946     2.00835    0.00831     3.01612
      C   27   -0.03274      0.99945     2.02346    0.00983     3.03274
      C   28    0.06678      0.99955     1.92336    0.01032     2.93322
      C   29   -0.31599      0.99969     2.31252    0.00378     3.31599
      C   30   -0.13794      0.99964     2.12894    0.00935     3.13794
      C   31   -0.13869      0.99971     2.13250    0.00648     3.13869
      C   32    0.02501      0.99953     1.96459    0.01088     2.97499
      C   33    0.15660      0.99948     1.83595    0.00797     2.84340
      C   34   -0.11929      0.99947     2.11045    0.00937     3.11929
      C   35    0.10590      0.99953     1.88422    0.01035     2.89410
      C   36   -0.32388      0.99969     2.32081    0.00338     3.32388
      C   37    0.20987      0.99965     1.78248    0.00800     2.79013
      C   38    0.31793      0.99970     1.67805    0.00432     2.68207
      C   39    0.09169      0.99951     1.89826    0.01054     2.90831
      C   40   -0.03066      0.99941     2.02284    0.00841     3.03066
      C   41   -0.00121      0.99945     1.99252    0.00924     3.00121
      C   42    0.06358      0.99954     1.92614    0.01074     2.93642
      C   43   -0.31668      0.99970     2.31328    0.00371     3.31668
      C   44   -0.21655      0.99967     2.20965    0.00724     3.21655
      C   45   -0.25786      0.99963     2.24933    0.00890     3.25786
      C   46    0.38265      0.99973     1.60037    0.01725     2.61735
      O   47   -0.28219      0.99990     3.27048    0.01182     4.28219
      O   48   -0.32730      0.99980     3.31202    0.01548     4.32730
      N   49   -0.21295      0.99969     2.69081    0.02245     3.71295
      N   50   -0.19732      0.99972     2.67671    0.02089     3.69732
      N   51   -0.17984      0.99972     2.65656    0.02356     3.67984
      N   52   -0.21837      0.99969     2.69913    0.01955     3.71837
     Fe   53    1.16011      8.99501     2.82208    0.02281    11.83989
      H   54    0.11817      0.00000     0.38126    0.00057     0.38183
      H   55    0.10878      0.00000     0.39011    0.00111     0.39122
      H   56    0.10972      0.00000     0.38934    0.00093     0.39028
      H   57    0.10515      0.00000     0.39397    0.00088     0.39485
      H   58    0.10354      0.00000     0.39575    0.00071     0.39646
      H   59    0.11138      0.00000     0.38799    0.00064     0.38862
      H   60    0.12122      0.00000     0.37801    0.00077     0.37878
      H   61    0.09635      0.00000     0.40220    0.00145     0.40365
      H   62    0.11582      0.00000     0.38360    0.00058     0.38418
      H   63    0.11408      0.00000     0.38526    0.00066     0.38592
      H   64    0.10695      0.00000     0.39244    0.00061     0.39305
      H   65    0.20558      0.00000     0.29361    0.00081     0.29442
      H   66    0.11057      0.00000     0.38864    0.00079     0.38943
      H   67    0.11346      0.00000     0.38580    0.00074     0.38654
      H   68    0.09082      0.00000     0.40844    0.00074     0.40918
      H   69    0.09396      0.00000     0.40536    0.00068     0.40604
      H   70    0.11550      0.00000     0.38372    0.00078     0.38450
      H   71    0.11004      0.00000     0.38937    0.00059     0.38996
      H   72    0.11728      0.00000     0.38205    0.00067     0.38272
      H   73    0.11623      0.00000     0.38311    0.00066     0.38377
      H   74    0.10578      0.00000     0.39267    0.00156     0.39422
      H   75    0.09949      0.00000     0.39972    0.00079     0.40051
      H   76    0.09169      0.00000     0.40719    0.00112     0.40831
      H   77    0.10303      0.00000     0.39601    0.00096     0.39697
      H   78    0.11024      0.00000     0.38865    0.00111     0.38976
      H   79    0.10649      0.00000     0.39289    0.00062     0.39351
      H   80    0.11098      0.00000     0.38818    0.00084     0.38902
      H   81    0.10650      0.00000     0.39197    0.00154     0.39350
      H   82    0.11219      0.00000     0.38705    0.00076     0.38781
      H   83    0.10642      0.00000     0.39280    0.00078     0.39358
      H   84    0.10903      0.00000     0.39015    0.00082     0.39097
      H   85    0.11358      0.00000     0.38566    0.00076     0.38642
      H   86    0.10882      0.00000     0.39032    0.00087     0.39118
      H   87    0.11671      0.00000     0.38263    0.00065     0.38329
      H   88    0.11572      0.00000     0.38354    0.00075     0.38428
      H   89    0.25037      0.00000     0.24677    0.00286     0.24963
      H   90    0.24839      0.00000     0.25032    0.00129     0.25161
      H   91    0.11364      0.00000     0.38564    0.00072     0.38636
      H   92    0.12015      0.00000     0.37912    0.00072     0.37985
      H   93    0.11102      0.00000     0.38825    0.00073     0.38898
      H   94    0.11385      0.00000     0.38541    0.00074     0.38615
      H   95    0.10917      0.00000     0.39023    0.00060     0.39083
      H   96    0.10941      0.00000     0.38976    0.00082     0.39059
      H   97    0.11005      0.00000     0.38913    0.00082     0.38995
      H   98    0.10812      0.00000     0.39058    0.00130     0.39188
      H   99    0.10559      0.00000     0.39312    0.00128     0.39441
 =======================================================================
   * Total *    2.00000     64.97483   136.41527    0.60990   202.00000

 Normal termination of Gaussian 16 at Wed Feb 15 18:07:24 2023.
