 Gaussian 16, Revision A.03,
 Gaussian 16:  ES64L-G16RevA.03 25-Dec-2016

 ---------------------------------------------------------------------
 # polar def2tzvp empiricaldispersion=gd3bj int=grid=ultrafine pbe1pbe
 ---------------------------------------------------------------------

 ---------
 2pcb_II_S
 ---------
 Symbolic Z-matrix:
 Charge =  0 Multiplicity = 1

                         Standard orientation:
 ---------------------------------------------------------------------
 Center     Atomic      Atomic             Coordinates (Angstroms)
 Number     Number       Type             X           Y           Z
 ---------------------------------------------------------------------
      1          6           0        2.452341   -1.508951    5.369520
      2          6           0        1.806793   -1.007875    4.122895
      3          7           0        0.704636   -0.188654    4.032805
      4          6           0        2.123836   -1.298378    2.817974
      5          6           0        0.399746    0.031241    2.762310
      6          7           0        1.227279   -0.645625    2.009838
      7          6           0       -0.607537    2.654348   -2.488435
      8          6           0        0.648785    1.901651   -2.875449
      9         16           0        0.335794    0.238432   -2.265310
     10          6           0        1.135186   -0.781395   -3.508815
     11         26           0        0.868684   -0.079514   -0.022166
     12          6           0       -2.510265   -0.003373    0.027790
     13          6           0        0.845563   -3.481463   -0.371367
     14          6           0        4.279624   -0.123661   -0.601785
     15          6           0        1.058141    3.117034    0.845639
     16          7           0       -0.564255   -1.475338   -0.113136
     17          6           0       -1.931370   -1.244738   -0.186491
     18          6           0       -2.582521   -2.502183   -0.492953
     19          6           0       -1.646165   -3.443744   -0.645009
     20          6           0       -0.363316   -2.813653   -0.393088
     21          6           0       -1.760681   -4.954837   -0.938149
     22          6           0       -4.122300   -2.701477   -0.592382
     23          6           0       -4.841296   -3.110925    0.707886
     24          6           0       -6.181050   -3.781231    0.578595
     25          8           0       -6.400877   -4.868126    1.189436
     26          8           0       -7.088105   -3.236588   -0.120397
     27          7           0        2.257050   -1.501558   -0.375980
     28          6           0        2.056710   -2.860196   -0.461798
     29          6           0        3.320212   -3.526671   -0.687836
     30          6           0        4.263316   -2.577104   -0.778906
     31          6           0        3.605482   -1.294639   -0.564184
     32          6           0        3.491941   -5.046106   -0.854598
     33          6           0        5.756720   -2.726910   -1.124539
     34          6           0        6.456868   -1.868636   -1.853725
     35          7           0        2.375066    1.243551    0.099480
     36          6           0        3.693675    1.044582   -0.261128
     37          6           0        4.399337    2.307011   -0.206500
     38          6           0        3.526198    3.233287    0.203600
     39          6           0        2.258887    2.580178    0.428294
     40          6           0        5.902712    2.493284   -0.511477
     41          6           0        3.863012    4.713772    0.402796
     42          6           0        3.018343    5.627741    0.822439
     43          7           0       -0.488553    1.298034    0.400025
     44          6           0       -0.221025    2.606682    0.694609
     45          6           0       -1.471150    3.361431    0.712824
     46          6           0       -2.451718    2.478240    0.484763
     47          6           0       -1.860868    1.183139    0.275988
     48          6           0       -1.531896    4.900438    0.968812
     49          6           0       -3.945763    2.767862    0.423066
     50          6           0       -4.602717    3.116155   -0.915825
     51          6           0       -6.042951    3.573207   -0.745409
     52          8           0       -6.870027    2.793619   -0.170248
     53          8           0       -6.355129    4.716616   -1.175589
     54          1           0        1.389270   -0.178207   -4.355282
     55          1           0        2.024244   -1.212854   -3.098548
     56          1           0        0.468314   -1.560728   -3.813484
     57          1           0       -1.174608    2.877827   -3.367860
     58          1           0       -1.195585    2.051337   -1.828529
     59          1           0       -0.339827    3.565553   -1.995548
     60          1           0        0.773643    1.896672   -3.938128
     61          1           0        1.505788    2.325096   -2.394679
     62          1           0        2.109743   -0.934126    6.204447
     63          1           0        2.195939   -2.537490    5.515346
     64          1           0        3.514736   -1.414925    5.283636
     65          1           0        0.205652    0.186673    4.813922
     66          1           0        2.927961   -1.923339    2.489785
     67          1           0       -0.392355    0.658703    2.410506
     68          1           0       -4.043185    3.899014   -1.383752
     69          1           0       -4.585150    2.251823   -1.546319
     70          1           0       -4.451032    1.907230    0.808962
     71          1           0       -4.138139    3.581391    1.090944
     72          1           0       -7.809588    2.873082   -0.350556
     73          1           0       -3.579094    0.035791   -0.003348
     74          1           0       -4.553827   -1.784293   -0.935104
     75          1           0       -4.312205   -3.455255   -1.327674
     76          1           0       -4.194724   -3.774224    1.243498
     77          1           0       -4.973137   -2.229214    1.299582
     78          1           0       -6.892290   -2.446914   -0.629977
     79          1           0       -2.408249    5.304561    0.506654
     80          1           0       -1.566432    5.085722    2.022081
     81          1           0       -0.662636    5.365731    0.553131
     82          1           0       -1.819468   -5.109630   -1.995260
     83          1           0       -0.900186   -5.459454   -0.551096
     84          1           0       -2.641774   -5.342949   -0.471304
     85          1           0        0.831260   -4.547308   -0.278264
     86          1           0        1.123951    4.055478    1.355436
     87          1           0        5.304416   -0.122191   -0.909516
     88          1           0        6.082589    3.503455   -0.814956
     89          1           0        6.474248    2.277641    0.367013
     90          1           0        6.192293    1.827739   -1.297666
     91          1           0        3.585559   -5.282520   -1.893946
     92          1           0        4.371800   -5.364680   -0.335697
     93          1           0        2.637923   -5.548083   -0.450156
     94          1           0        5.997983   -0.969841   -2.209383
     95          1           0        7.480682   -2.074915   -2.086436
     96          1           0        6.267725   -3.588288   -0.747974
     97          1           0        2.325090    6.070136    0.137905
     98          1           0        3.023444    5.929968    1.848856
     99          1           0        4.862232    5.027395    0.183478
 ---------------------------------------------------------------------

 SCF Done:  E(RPBE1PBE) =  -3879.32367031     A.U. after   27 cycles

 The electronic state is 1-A.
 Alpha  occ. eigenvalues -- -256.31638 -89.02175 -30.08492 -25.91332 -25.90944
 Alpha  occ. eigenvalues --  -25.90902 -19.27562 -19.27265 -19.18390 -19.17354
 Alpha  occ. eigenvalues --  -14.44596 -14.38462 -14.37499 -14.37486 -14.37228
 Alpha  occ. eigenvalues --  -14.37156 -10.36216 -10.35381 -10.26972 -10.26321
 Alpha  occ. eigenvalues --  -10.25032 -10.24724 -10.24604 -10.24534 -10.24333
 Alpha  occ. eigenvalues --  -10.24311 -10.24229 -10.24081 -10.24077 -10.23819
 Alpha  occ. eigenvalues --  -10.23719 -10.23718 -10.23559 -10.23504 -10.23329
 Alpha  occ. eigenvalues --  -10.23283 -10.23220 -10.23052 -10.22902 -10.22742
 Alpha  occ. eigenvalues --  -10.22549 -10.22489 -10.22413 -10.22361 -10.22337
 Alpha  occ. eigenvalues --  -10.22300 -10.22240 -10.21691 -10.21655 -10.21649
 Alpha  occ. eigenvalues --  -10.21619 -10.21535 -10.21503 -10.21470 -10.20649
 Alpha  occ. eigenvalues --  -10.20224 -10.19384  -8.00017  -5.93689  -5.93366
 Alpha  occ. eigenvalues --   -5.92833  -3.43026  -2.19057  -2.18314  -2.18222
 Alpha  occ. eigenvalues --   -1.16883  -1.16572  -1.06408  -1.02548  -1.01599
 Alpha  occ. eigenvalues --   -0.98153  -0.97312  -0.96820  -0.95898  -0.90837
 Alpha  occ. eigenvalues --   -0.84434  -0.84186  -0.83926  -0.83507  -0.82763
 Alpha  occ. eigenvalues --   -0.82339  -0.81633  -0.81563  -0.80964  -0.79578
 Alpha  occ. eigenvalues --   -0.79020  -0.78254  -0.77725  -0.76667  -0.75958
 Alpha  occ. eigenvalues --   -0.74255  -0.73034  -0.72874  -0.72149  -0.71533
 Alpha  occ. eigenvalues --   -0.70179  -0.69557  -0.69392  -0.67213  -0.66665
 Alpha  occ. eigenvalues --   -0.66444  -0.65829  -0.65531  -0.64284  -0.62208
 Alpha  occ. eigenvalues --   -0.61547  -0.61009  -0.60727  -0.59224  -0.58058
 Alpha  occ. eigenvalues --   -0.56912  -0.56363  -0.55572  -0.55127  -0.54141
 Alpha  occ. eigenvalues --   -0.53341  -0.52489  -0.52381  -0.51789  -0.51401
 Alpha  occ. eigenvalues --   -0.50767  -0.50301  -0.49991  -0.49252  -0.49087
 Alpha  occ. eigenvalues --   -0.48823  -0.48452  -0.48083  -0.48000  -0.47749
 Alpha  occ. eigenvalues --   -0.46979  -0.46740  -0.46116  -0.46023  -0.45685
 Alpha  occ. eigenvalues --   -0.45350  -0.45226  -0.44978  -0.44647  -0.44582
 Alpha  occ. eigenvalues --   -0.44223  -0.44051  -0.44005  -0.43800  -0.43595
 Alpha  occ. eigenvalues --   -0.43486  -0.43445  -0.43343  -0.43118  -0.42638
 Alpha  occ. eigenvalues --   -0.42348  -0.42008  -0.41788  -0.41467  -0.41130
 Alpha  occ. eigenvalues --   -0.40887  -0.40785  -0.40510  -0.40223  -0.39865
 Alpha  occ. eigenvalues --   -0.39624  -0.39436  -0.39208  -0.39119  -0.38854
 Alpha  occ. eigenvalues --   -0.38582  -0.38372  -0.37833  -0.37725  -0.37308
 Alpha  occ. eigenvalues --   -0.37241  -0.36954  -0.36531  -0.36023  -0.35484
 Alpha  occ. eigenvalues --   -0.35298  -0.34818  -0.34318  -0.33678  -0.33174
 Alpha  occ. eigenvalues --   -0.32890  -0.32523  -0.32118  -0.31924  -0.31901
 Alpha  occ. eigenvalues --   -0.31199  -0.29843  -0.29528  -0.29166  -0.28201
 Alpha  occ. eigenvalues --   -0.27664  -0.27232  -0.27106  -0.26091  -0.25041
 Alpha  occ. eigenvalues --   -0.24695  -0.23993  -0.23413  -0.20756  -0.19964
 Alpha  occ. eigenvalues --   -0.19260  -0.19136  -0.18946  -0.16929
 Alpha virt. eigenvalues --   -0.08973  -0.07166  -0.06082  -0.01678  -0.00674
 Alpha virt. eigenvalues --    0.00141   0.00840   0.01156   0.01223   0.02445
 Alpha virt. eigenvalues --    0.02739   0.03020   0.03585   0.03995   0.04384

 Mulliken charges:
               1
     1  C   -0.364923
     2  C    0.127335
     3  N   -0.213944
     4  C   -0.184616
     5  C    0.062602
     6  N   -0.073898
     7  C   -0.329157
     8  C   -0.157316
     9  S    0.040809
    10  C   -0.390807
    11  Fe  -0.397252
    12  C   -0.468866
    13  C   -0.424936
    14  C   -0.454547
    15  C   -0.472932
    16  N    0.043865
    17  C    0.282013
    18  C   -0.012150
    19  C   -0.026139
    20  C    0.194317
    21  C   -0.394323
    22  C   -0.424928
    23  C   -0.220025
    24  C    0.298587
    25  O   -0.375801
    26  O   -0.289271
    27  N    0.048120
    28  C    0.167383
    29  C   -0.029783
    30  C    0.050298
    31  C    0.206657
    32  C   -0.388987
    33  C   -0.240546
    34  C   -0.260274
    35  N    0.047451
    36  C    0.289396
    37  C   -0.089264
    38  C    0.051116
    39  C    0.142827
    40  C   -0.376376
    41  C   -0.132369
    42  C   -0.424437
    43  N   -0.085266
    44  C    0.229192
    45  C   -0.056495
    46  C    0.202122
    47  C    0.188196
    48  C   -0.417845
    49  C   -0.529809
    50  C   -0.105820
    51  C    0.259839
    52  O   -0.340373
    53  O   -0.371757
    54  H    0.138416
    55  H    0.154942
    56  H    0.147721
    57  H    0.114535
    58  H    0.140290
    59  H    0.099543
    60  H    0.125708
    61  H    0.132743
    62  H    0.121114
    63  H    0.146937
    64  H    0.149701
    65  H    0.224276
    66  H    0.140038
    67  H    0.173332
    68  H    0.133350
    69  H    0.115861
    70  H    0.127423
    71  H    0.143115
    72  H    0.346753
    73  H    0.094892
    74  H    0.104895
    75  H    0.148648
    76  H    0.137693
    77  H    0.132671
    78  H    0.336045
    79  H    0.144485
    80  H    0.137992
    81  H    0.146817
    82  H    0.143041
    83  H    0.125717
    84  H    0.143862
    85  H    0.095297
    86  H    0.163242
    87  H    0.085358
    88  H    0.129197
    89  H    0.145968
    90  H    0.127696
    91  H    0.144020
    92  H    0.130698
    93  H    0.123692
    94  H    0.120901
    95  H    0.125653
    96  H    0.115353
    97  H    0.148666
    98  H    0.138414
    99  H    0.126395
 Sum of Mulliken charges =  -0.00000

 Dipole moment (field-independent basis, Debye):
    X=              3.6432    Y=              0.8937    Z=              1.2214  Tot=              3.9450
 Quadrupole moment (field-independent basis, Debye-Ang):
   XX=           -329.7063   YY=           -363.7157   ZZ=           -293.0056
   XY=            -23.9170   XZ=              9.2870   YZ=             14.2175

  Exact polarizability: 818.497  20.917 829.777 -21.105  46.913 428.114
 Approx polarizability:1416.404  28.7021638.242 -69.055 150.432 688.053

 Normal termination of Gaussian 16 at Sun Apr  2 21:09:28 2023.
