 Gaussian 16, Revision A.03,
 Gaussian 16:  ES64L-G16RevA.03 25-Dec-2016

 ----------------------------------------------------------------------
 # PBE1PBE/def2TZVP empiricaldispersion=GD3BJ scf=maxcycle=999 geom=che
 ck pop=nbo
 ----------------------------------------------------------------------

 ----------
 2v07_III_D
 ----------
 Structure from the checkpoint file:  "2v07_III_D.chk"
 Charge =  1 Multiplicity = 2

                         Standard orientation:
 ---------------------------------------------------------------------
 Center     Atomic      Atomic             Coordinates (Angstroms)
 Number     Number       Type             X           Y           Z
 ---------------------------------------------------------------------
      1          6           0        2.635877   -1.638983    4.958577
      2          6           0        1.801230   -1.148534    3.811592
      3          7           0        0.450590   -0.932798    3.936438
      4          6           0        2.112573   -0.858916    2.521461
      5          6           0       -0.043074   -0.522250    2.774784
      6          7           0        0.939024   -0.489112    1.891057
      7          6           0       -1.294123    2.199588   -2.802054
      8          6           0       -0.592451    0.900961   -3.199964
      9         16           0        0.908497    0.606370   -2.317779
     10          6           0        1.693958   -0.650623   -3.275358
     11         26           0        0.848699   -0.019251   -0.058183
     12          6           0       -2.571388   -0.385287   -0.086204
     13          6           0        1.199898   -3.342925   -0.711993
     14          6           0        4.239082    0.409714   -0.370972
     15          6           0        0.541183    3.189911    0.910480
     16          7           0       -0.433139   -1.551629   -0.366872
     17          6           0       -1.817670   -1.506003   -0.285426
     18          6           0       -2.336442   -2.851345   -0.445198
     19          6           0       -1.293800   -3.665277   -0.646106
     20          6           0       -0.067681   -2.868655   -0.595232
     21          6           0       -1.326753   -5.184854   -0.865195
     22          6           0       -3.834926   -3.193411   -0.365303
     23          6           0       -4.268974   -3.131499    1.104885
     24          6           0       -5.762668   -3.289014    1.310033
     25          8           0       -6.522952   -3.084826    0.329892
     26          8           0       -6.204957   -3.577914    2.477059
     27          7           0        2.431507   -1.216684   -0.455735
     28          6           0        2.352638   -2.572832   -0.660349
     29          6           0        3.689220   -3.071583   -0.880976
     30          6           0        4.537472   -2.032681   -0.797047
     31          6           0        3.748648   -0.850893   -0.541728
     32          6           0        3.976966   -4.552128   -1.159422
     33          6           0        6.050732   -1.996162   -1.023151
     34          6           0        6.413860   -2.412289   -2.276366
     35          7           0        2.162400    1.511174    0.212943
     36          6           0        3.508630    1.478317    0.042338
     37          6           0        4.039829    2.775043    0.426839
     38          6           0        3.015409    3.559141    0.787093
     39          6           0        1.808123    2.765817    0.647298
     40          6           0        5.514830    3.139536    0.398534
     41          6           0        3.060123    5.004683    1.291858
     42          6           0        3.739480    5.970401    0.646033
     43          7           0       -0.726751    1.175356    0.343093
     44          6           0       -0.602949    2.520540    0.667553
     45          6           0       -1.918589    3.140556    0.717654
     46          6           0       -2.867797    2.038633    0.385826
     47          6           0       -2.071926    0.864436    0.183021
     48          6           0       -2.259970    4.610773    1.002925
     49          6           0       -4.382165    2.206095    0.284659
     50          6           0       -4.694381    2.682751   -1.140094
     51          6           0       -6.183836    2.915351   -1.362904
     52          8           0       -6.609867    3.117686   -2.516585
     53          8           0       -6.961065    2.922068   -0.399338
     54          1           0        2.191130   -2.519866    5.372276
     55          1           0        3.621663   -1.866932    4.610488
     56          1           0        2.689857   -0.879792    5.710651
     57          1           0        3.084370   -0.907845    2.076359
     58          1           0       -0.079529   -1.064784    4.774027
     59          1           0       -1.063612   -0.262105    2.585767
     60          1           0        0.981994   -1.086130   -3.944941
     61          1           0        2.496470   -0.221268   -3.837966
     62          1           0        2.079680   -1.406660   -2.623800
     63          1           0       -2.132699    1.974733   -2.176650
     64          1           0       -0.609621    2.826045   -2.269224
     65          1           0       -1.631158    2.706911   -3.681787
     66          1           0       -1.259613    0.083844   -3.020756
     67          1           0       -0.371474    0.939208   -4.246199
     68          1           0        5.976318    2.830032    1.312939
     69          1           0        5.988321    2.646528   -0.424660
     70          1           0        5.618423    4.198694    0.287395
     71          1           0        5.276656    0.569493   -0.577877
     72          1           0        3.116015   -5.005160   -1.604871
     73          1           0        4.808978   -4.634320   -1.827180
     74          1           0        4.206649   -5.049796   -0.240470
     75          1           0        7.282735   -3.033028   -2.208254
     76          1           0        5.611431   -2.968688   -2.713890
     77          1           0        6.631125   -1.560271   -2.886088
     78          1           0        6.751755   -1.678671   -0.279735
     79          1           0        3.369063    6.928455    0.945735
     80          1           0        4.779150    5.898194    0.888463
     81          1           0        3.610355    5.852351   -0.409567
     82          1           0        2.533122    5.255248    2.188734
     83          1           0        0.443750    4.157143    1.357547
     84          1           0       -3.097948    4.660090    1.666447
     85          1           0       -1.417816    5.091117    1.455636
     86          1           0       -2.501949    5.105253    0.085409
     87          1           0       -4.351927    1.944375   -1.834665
     88          1           0       -4.170501    3.597983   -1.321202
     89          1           0       -4.865278    1.269406    0.469366
     90          1           0       -4.716184    2.934468    0.993746
     91          1           0       -7.875426    2.654881   -0.518317
     92          1           0       -3.634720   -0.489335   -0.144511
     93          1           0        1.318960   -4.396549   -0.855522
     94          1           0       -2.277197   -5.466620   -1.267891
     95          1           0       -0.552729   -5.463424   -1.549435
     96          1           0       -1.173294   -5.683322    0.069086
     97          1           0       -4.000532   -4.178552   -0.748671
     98          1           0       -4.397172   -2.485007   -0.937091
     99          1           0       -3.767493   -3.909808    1.641217
    100          1           0       -3.967094   -2.188194    1.509787
    101          1           0       -7.459011   -3.286602    0.398294
 ---------------------------------------------------------------------

 SCF Done:  E(UPBE1PBE) =  -3880.39338635     A.U. after   91 cycles

 Alpha virt. eigenvalues --    0.95493   0.95825   0.96082   0.96348   0.96621
 Alpha virt. eigenvalues --    0.96807   0.97038   0.97164   0.97458   0.97647
 Alpha virt. eigenvalues --    0.97732   0.98255   0.98472   0.99044   0.99093

  Beta  occ. eigenvalues -- -256.50445 -89.13887 -30.26843 -26.09965 -26.09604
  Beta  occ. eigenvalues --  -26.08998 -19.34674 -19.33466 -19.24566 -19.23846
  Beta  occ. eigenvalues --  -14.55158 -14.51309 -14.48887 -14.48627 -14.48462
  Beta  occ. eigenvalues --  -14.48359 -10.43067 -10.41970 -10.39216 -10.36491
  Beta  occ. eigenvalues --  -10.35431 -10.35392 -10.35384 -10.35369 -10.35071
  Beta  occ. eigenvalues --  -10.35020 -10.34925 -10.34831 -10.34261 -10.34105
  Beta  occ. eigenvalues --  -10.33617 -10.33232 -10.32736 -10.32363 -10.32295
  Beta  occ. eigenvalues --  -10.32282 -10.32143 -10.32113 -10.32098 -10.31827
  Beta  occ. eigenvalues --  -10.31799 -10.31749 -10.31705 -10.31664 -10.31628
  Beta  occ. eigenvalues --  -10.31565 -10.31545 -10.31492 -10.31413 -10.30456
  Beta  occ. eigenvalues --  -10.30172 -10.30019 -10.29927 -10.29531 -10.29512
  Beta  occ. eigenvalues --  -10.27983 -10.27707  -8.11818  -6.05428  -6.05170
  Beta  occ. eigenvalues --   -6.04707  -3.59152  -2.34490  -2.34401  -2.33818
  Beta  occ. eigenvalues --   -1.24748  -1.24420  -1.17310  -1.09015  -1.08802
  Beta  occ. eigenvalues --   -1.07931  -1.07841  -1.07493  -1.06025  -1.02053
  Beta  occ. eigenvalues --   -0.95481  -0.94799  -0.93420  -0.92997  -0.92540
  Beta  occ. eigenvalues --   -0.91997  -0.91613  -0.91431  -0.91318  -0.88560
  Beta  occ. eigenvalues --   -0.88301  -0.87517  -0.87242  -0.87081  -0.86534
  Beta  occ. eigenvalues --   -0.84188  -0.82621  -0.81783  -0.81619  -0.81044
  Beta  occ. eigenvalues --   -0.79198  -0.78431  -0.77735  -0.77443  -0.76475
  Beta  occ. eigenvalues --   -0.75843  -0.75551  -0.73992  -0.73772  -0.72872
  Beta  occ. eigenvalues --   -0.71695  -0.70938  -0.69974  -0.69739  -0.68813
  Beta  occ. eigenvalues --   -0.67173  -0.66026  -0.65200  -0.64440  -0.63628
  Beta  occ. eigenvalues --   -0.62519  -0.62072  -0.61901  -0.60244  -0.60048
  Beta  occ. eigenvalues --   -0.59253  -0.59177  -0.59025  -0.58828  -0.58512
  Beta  occ. eigenvalues --   -0.58417  -0.58208  -0.57482  -0.57299  -0.56832
  Beta  occ. eigenvalues --   -0.56299  -0.56172  -0.55805  -0.55413  -0.55021
  Beta  occ. eigenvalues --   -0.54989  -0.54601  -0.54358  -0.54182  -0.54119
  Beta  occ. eigenvalues --   -0.53925  -0.53678  -0.53476  -0.53347  -0.52901
  Beta  occ. eigenvalues --   -0.52823  -0.52609  -0.52490  -0.52163  -0.51895
  Beta  occ. eigenvalues --   -0.51704  -0.51661  -0.51173  -0.50916  -0.50673
  Beta  occ. eigenvalues --   -0.50400  -0.50186  -0.49878  -0.49724  -0.49468
  Beta  occ. eigenvalues --   -0.49304  -0.48921  -0.48576  -0.48314  -0.48059
  Beta  occ. eigenvalues --   -0.47873  -0.47727  -0.47401  -0.47203  -0.47089
  Beta  occ. eigenvalues --   -0.46962  -0.46772  -0.46457  -0.46042  -0.45870
  Beta  occ. eigenvalues --   -0.45600  -0.45505  -0.44721  -0.44153  -0.44073
  Beta  occ. eigenvalues --   -0.43610  -0.43588  -0.43325  -0.42855  -0.42757
  Beta  occ. eigenvalues --   -0.41678  -0.41134  -0.39155  -0.38956  -0.38888
  Beta  occ. eigenvalues --   -0.38736  -0.37957  -0.37614  -0.35464  -0.35367
  Beta  occ. eigenvalues --   -0.34935  -0.34696  -0.34414  -0.33995  -0.33576
  Beta  occ. eigenvalues --   -0.31743  -0.30054  -0.29908  -0.28042
  Beta virt. eigenvalues --   -0.19360  -0.17573  -0.15900  -0.13896  -0.12878
  Beta virt. eigenvalues --   -0.10826  -0.10107  -0.08564  -0.06960  -0.06765
  Beta virt. eigenvalues --   -0.06470  -0.06089  -0.05573  -0.05281  -0.05129

 Mulliken charges and spin densities:
               1          2
     1  C   -0.374973  -0.000070
     2  C    0.154144  -0.000446
     3  N   -0.198961   0.000434
     4  C   -0.201772   0.003771
     5  C    0.024991   0.002917
     6  N    0.077862  -0.036499
     7  C   -0.312439   0.000259
     8  C   -0.203389   0.005137
     9  S    0.076533  -0.037615
    10  C   -0.336831  -0.000733
    11  Fe  -0.357320   1.165784
    12  C   -0.650277  -0.029706
    13  C   -0.527670  -0.025198
    14  C   -0.452588   0.010641
    15  C   -0.504593   0.024262
    16  N    0.065787  -0.059843
    17  C    0.278188   0.016963
    18  C    0.033300   0.013104
    19  C   -0.093315   0.000545
    20  C    0.269873   0.022608
    21  C   -0.392152  -0.000690
    22  C   -0.286754  -0.001703
    23  C   -0.191982   0.000645
    24  C    0.265538   0.000135
    25  O   -0.323680  -0.000004
    26  O   -0.390301   0.000109
    27  N   -0.041917  -0.040700
    28  C    0.279872   0.031693
    29  C   -0.102359  -0.096494
    30  C    0.076125   0.130921
    31  C    0.102827  -0.031634
    32  C   -0.349514   0.003767
    33  C   -0.229472  -0.961900
    34  C   -0.333828   0.067069
    35  N    0.058201  -0.015713
    36  C    0.298100  -0.028354
    37  C   -0.047871   0.138479
    38  C   -0.005122  -0.139579
    39  C    0.242449   0.007152
    40  C   -0.372010  -0.007784
    41  C   -0.249618   0.939502
    42  C   -0.330913  -0.074623
    43  N    0.030058  -0.035187
    44  C    0.306932  -0.003873
    45  C   -0.079073   0.004835
    46  C    0.062571   0.002003
    47  C    0.173185   0.013907
    48  C   -0.379631  -0.000973
    49  C   -0.268441  -0.000295
    50  C   -0.199206   0.000064
    51  C    0.254875   0.000018
    52  O   -0.363531   0.000034
    53  O   -0.319920  -0.000003
    54  H    0.149079   0.000027
    55  H    0.150223   0.000002
    56  H    0.155303  -0.000069
    57  H    0.160650  -0.000641
    58  H    0.250639  -0.000327
    59  H    0.183980  -0.000228
    60  H    0.162007   0.000083
    61  H    0.160156  -0.001323
    62  H    0.153340  -0.000765
    63  H    0.066526   0.000083
    64  H    0.138655   0.000301
    65  H    0.152758   0.000001
    66  H    0.142048  -0.000948
    67  H    0.165747  -0.001608
    68  H    0.155131   0.005765
    69  H    0.134991   0.002170
    70  H    0.128544   0.002266
    71  H    0.134912  -0.003393
    72  H    0.129548  -0.000665
    73  H    0.139440  -0.001567
    74  H    0.156565  -0.003645
    75  H    0.137413  -0.033567
    76  H    0.130394  -0.007453
    77  H    0.141556  -0.074855
    78  H    0.154939   0.048187
    79  H    0.137074   0.009157
    80  H    0.137999   0.086433
    81  H    0.139700   0.037939
    82  H    0.138426  -0.047843
    83  H    0.107112   0.005899
    84  H    0.148227   0.000075
    85  H    0.135793   0.000164
    86  H    0.152305   0.000206
    87  H    0.139432   0.000062
    88  H    0.143680   0.000005
    89  H    0.117086  -0.000024
    90  H    0.135502   0.000096
    91  H    0.358847   0.000008
    92  H    0.135822   0.001207
    93  H    0.132336   0.001067
    94  H    0.143423  -0.000043
    95  H    0.136170  -0.000012
    96  H    0.156795   0.000220
    97  H    0.128143  -0.000018
    98  H    0.139303   0.000367
    99  H    0.147180  -0.000015
   100  H    0.140220   0.000060
   101  H    0.354890   0.000020
 Sum of Mulliken charges =   1.00000   1.00000

 Dipole moment (field-independent basis, Debye):
    X=              4.8436    Y=             -1.5745    Z=              2.6463  Tot=              5.7396
 Quadrupole moment (field-independent basis, Debye-Ang):
   XX=           -241.4503   YY=           -268.6650   ZZ=           -287.3621
   XY=              2.0803   XZ=              0.4246   YZ=             20.5536

 Summary of Natural Population Analysis:

                                       Natural Population
                Natural  -----------------------------------------------
    Atom  No    Charge         Core      Valence    Rydberg      Total
 -----------------------------------------------------------------------
      C    1   -0.32080      0.99969     2.31801    0.00309     3.32080
      C    2    0.06192      0.99956     1.92958    0.00895     2.93808
      N    3   -0.23481      0.99968     2.72526    0.00986     3.73481
      C    4   -0.03393      0.99943     2.02533    0.00917     3.03393
      C    5    0.10627      0.99965     1.88333    0.01076     2.89373
      N    6   -0.18509      0.99967     2.65795    0.02746     3.68509
      C    7   -0.30793      0.99972     2.30210    0.00610     3.30793
      C    8   -0.27326      0.99966     2.26408    0.00952     3.27326
      S    9    0.30488      4.99929     2.67533    0.02049     7.69512
      C   10   -0.38520      0.99965     2.37624    0.00932     3.38520
     Fe   11    0.63981      8.99572     3.33662    0.02786    12.36019
      C   12   -0.13914      0.99944     2.13062    0.00908     3.13914
      C   13   -0.13553      0.99945     2.12755    0.00853     3.13553
      C   14   -0.11166      0.99944     2.10326    0.00896     3.11166
      C   15   -0.10500      0.99942     2.09699    0.00859     3.10500
      N   16   -0.21177      0.99968     2.68973    0.02236     3.71177
      C   17    0.08305      0.99949     1.90725    0.01021     2.91695
      C   18   -0.00285      0.99938     1.99400    0.00947     3.00285
      C   19   -0.00187      0.99939     1.99444    0.00804     3.00187
      C   20    0.09411      0.99950     1.89580    0.01059     2.90589
      C   21   -0.31910      0.99970     2.31590    0.00350     3.31910
      C   22   -0.21382      0.99968     2.20732    0.00682     3.21382
      C   23   -0.24699      0.99962     2.23888    0.00848     3.24699
      C   24    0.37828      0.99977     1.60448    0.01748     2.62172
      O   25   -0.32294      0.99981     3.31017    0.01295     4.32294
      O   26   -0.30549      0.99991     3.29438    0.01120     4.30549
      N   27   -0.22341      0.99967     2.69896    0.02478     3.72341
      C   28    0.09178      0.99952     1.89771    0.01100     2.90822
      C   29   -0.05622      0.99939     2.04815    0.00867     3.05622
      C   30    0.00397      0.99936     1.98598    0.01069     2.99603
      C   31    0.05746      0.99950     1.93182    0.01122     2.94254
      C   32   -0.31602      0.99969     2.31229    0.00404     3.31602
      C   33   -0.48869      0.99963     2.47842    0.01063     3.48869
      C   34   -0.32191      0.99965     2.31313    0.00912     3.32191
      N   35   -0.18551      0.99966     2.66363    0.02222     3.68551
      C   36    0.06947      0.99951     1.92055    0.01047     2.93053
      C   37    0.06064      0.99940     1.93213    0.00784     2.93936
      C   38   -0.08912      0.99938     2.07967    0.01007     3.08912
      C   39    0.10141      0.99950     1.88860    0.01048     2.89859
      C   40   -0.32131      0.99970     2.31802    0.00359     3.32131
      C   41    0.39161      0.99957     1.60106    0.00775     2.60839
      C   42   -0.36953      0.99962     2.36168    0.00823     3.36953
      N   43   -0.22282      0.99968     2.69812    0.02502     3.72282
      C   44    0.06873      0.99945     1.92117    0.01065     2.93127
      C   45    0.00742      0.99958     1.98478    0.00822     2.99258
      C   46   -0.00356      0.99956     1.99511    0.00889     3.00356
      C   47    0.06506      0.99945     1.92494    0.01054     2.93494
      C   48   -0.32237      0.99968     2.31911    0.00357     3.32237
      C   49   -0.21769      0.99966     2.21166    0.00637     3.21769
      C   50   -0.24412      0.99963     2.23639    0.00810     3.24412
      C   51    0.37910      0.99978     1.60242    0.01870     2.62090
      O   52   -0.30046      0.99989     3.28828    0.01228     4.30046
      O   53   -0.32560      0.99980     3.31208    0.01372     4.32560
      H   54    0.11471      0.00000     0.38466    0.00064     0.38529
      H   55    0.12031      0.00000     0.37924    0.00045     0.37969
      H   56    0.11567      0.00000     0.38369    0.00065     0.38433
      H   57    0.12036      0.00000     0.37884    0.00080     0.37964
      H   58    0.21357      0.00000     0.28569    0.00074     0.28643
      H   59    0.11689      0.00000     0.38226    0.00085     0.38311
      H   60    0.11822      0.00000     0.38115    0.00063     0.38178
      H   61    0.11880      0.00000     0.38072    0.00048     0.38120
      H   62    0.12773      0.00000     0.37158    0.00069     0.37227
      H   63    0.11029      0.00000     0.38873    0.00098     0.38971
      H   64    0.11104      0.00000     0.38808    0.00088     0.38896
      H   65    0.11463      0.00000     0.38488    0.00050     0.38537
      H   66    0.11183      0.00000     0.38714    0.00103     0.38817
      H   67    0.11876      0.00000     0.38056    0.00068     0.38124
      H   68    0.11715      0.00000     0.38216    0.00069     0.38285
      H   69    0.11136      0.00000     0.38804    0.00061     0.38864
      H   70    0.11418      0.00000     0.38508    0.00074     0.38582
      H   71    0.11776      0.00000     0.38073    0.00151     0.38224
      H   72    0.10878      0.00000     0.39057    0.00065     0.39122
      H   73    0.11286      0.00000     0.38624    0.00089     0.38714
      H   74    0.11497      0.00000     0.38424    0.00079     0.38503
      H   75    0.09929      0.00000     0.39977    0.00094     0.40071
      H   76    0.10558      0.00000     0.39365    0.00077     0.39442
      H   77    0.08263      0.00000     0.41555    0.00182     0.41737
      H   78    0.11445      0.00000     0.38469    0.00086     0.38555
      H   79    0.12275      0.00000     0.37675    0.00050     0.37725
      H   80    0.15426      0.00000     0.34514    0.00061     0.34574
      H   81    0.13208      0.00000     0.36731    0.00061     0.36792
      H   82    0.08122      0.00000     0.41803    0.00075     0.41878
      H   83    0.11535      0.00000     0.38329    0.00136     0.38465
      H   84    0.11530      0.00000     0.38400    0.00070     0.38470
      H   85    0.11157      0.00000     0.38784    0.00058     0.38843
      H   86    0.11552      0.00000     0.38368    0.00080     0.38448
      H   87    0.11866      0.00000     0.38068    0.00067     0.38134
      H   88    0.12028      0.00000     0.37902    0.00070     0.37972
      H   89    0.10753      0.00000     0.39150    0.00097     0.39247
      H   90    0.11563      0.00000     0.38324    0.00113     0.38437
      H   91    0.26059      0.00000     0.23802    0.00139     0.23941
      H   92    0.11437      0.00000     0.38448    0.00115     0.38563
      H   93    0.11642      0.00000     0.38224    0.00134     0.38358
      H   94    0.11335      0.00000     0.38593    0.00072     0.38665
      H   95    0.11142      0.00000     0.38793    0.00065     0.38858
      H   96    0.11473      0.00000     0.38457    0.00070     0.38527
      H   97    0.11348      0.00000     0.38579    0.00074     0.38652
      H   98    0.11327      0.00000     0.38592    0.00081     0.38673
      H   99    0.12295      0.00000     0.37642    0.00063     0.37705
      H  100    0.11803      0.00000     0.38135    0.00062     0.38197
      H  101    0.25994      0.00000     0.23866    0.00140     0.24006
 =======================================================================
   * Total *    1.00000     64.97435   138.39019    0.63546   204.00000

 Normal termination of Gaussian 16 at Tue Feb  7 22:32:09 2023.
