 Gaussian 16, Revision A.03,
 Gaussian 16:  ES64L-G16RevA.03 25-Dec-2016

 ---------------------------------------------------------------------
 # polar def2tzvp empiricaldispersion=gd3bj int=grid=ultrafine pbe1pbe
 ---------------------------------------------------------------------

 ---------
 3ccx_II_S
 ---------
 Symbolic Z-matrix:
 Charge =  0 Multiplicity = 1

                         Standard orientation:
 ---------------------------------------------------------------------
 Center     Atomic      Atomic             Coordinates (Angstroms)
 Number     Number       Type             X           Y           Z
 ---------------------------------------------------------------------
      1          6           0       -1.539573   -1.961020    5.107070
      2          6           0       -1.583767   -1.033946    3.882742
      3          7           0       -2.015085    0.224340    3.801803
      4          6           0       -1.125232   -1.329653    2.598305
      5          6           0       -1.834548    0.699400    2.578373
      6          7           0       -1.290794   -0.260400    1.839520
      7          6           0        2.386895   -0.003326    0.038318
      8          6           0       -0.900885    3.492459   -0.293123
      9          6           0       -4.279118    0.234487   -0.875102
     10          6           0       -0.993776   -3.224622   -0.802009
     11          6           0        1.801623    1.280879   -0.021938
     12          6           0        2.521232    2.456089    0.011107
     13          6           0        1.564116    3.473653   -0.087278
     14          6           0        0.337716    2.838532   -0.177076
     15          6           0        1.772330    4.976248    0.027847
     16          6           0        4.038218    2.561357    0.213295
     17          6           0        4.857104    2.785202   -1.057417
     18          6           0        6.368767    2.862431   -0.844485
     19          8           0        6.858836    3.862685   -0.329724
     20          8           0        7.101866    1.931585   -1.174787
     21          6           0       -2.182613    2.944829   -0.362994
     22          6           0       -3.380885    3.669331   -0.380061
     23          6           0       -4.362615    2.699900   -0.564101
     24          6           0       -3.688251    1.476113   -0.613463
     25          6           0       -3.518326    5.180543   -0.234419
     26          6           0       -5.756514    2.807752   -0.641291
     27          6           0       -6.385666    4.013999   -0.305051
     28          6           0       -3.696443   -1.033460   -0.985267
     29          6           0       -4.394625   -2.194723   -1.299111
     30          6           0       -3.406517   -3.182582   -1.363891
     31          6           0       -2.214505   -2.556931   -0.994190
     32          6           0       -5.895519   -2.290644   -1.602777
     33          6           0       -3.468745   -4.556478   -1.642756
     34          6           0       -4.610010   -5.429277   -1.699237
     35          6           0        0.243879   -2.692641   -0.445585
     36          6           0        1.365715   -3.435992   -0.118070
     37          6           0        2.351945   -2.490731    0.122302
     38          6           0        1.757737   -1.248929   -0.064958
     39          6           0        1.486711   -4.956252    0.017465
     40          6           0        3.778404   -2.771710    0.565166
     41          6           0        4.770476   -2.654294   -0.573794
     42          6           0        6.244914   -2.739384   -0.204730
     43          8           0        7.054360   -2.319188   -1.010225
     44          8           0        6.609267   -3.206198    0.870378
     45          7           0        0.476940    1.523026   -0.121546
     46          7           0       -2.387309    1.630569   -0.390212
     47          7           0       -2.389387   -1.251151   -0.808585
     48          7           0        0.455367   -1.377017   -0.336816
     49         26           0       -1.002351    0.113984   -0.120574
     50          1           0        7.596780    4.307700   -0.752809
     51          1           0        4.653260    1.982482   -1.734903
     52          1           0        4.533776    3.699557   -1.509428
     53          1           0        4.230752    3.373697    0.882574
     54          1           0        4.377521    1.657625    0.674859
     55          1           0        7.239579   -2.817886   -1.809346
     56          1           0        4.560521   -3.433840   -1.276024
     57          1           0        4.605536   -1.715339   -1.059652
     58          1           0        3.827472   -3.762553    0.966068
     59          1           0        4.046695   -2.074337    1.331058
     60          1           0        3.447053   -0.026595    0.181231
     61          1           0        1.621217    5.431577   -0.928574
     62          1           0        1.073175    5.380460    0.729770
     63          1           0        2.769042    5.173542    0.363318
     64          1           0       -0.854643    4.560693   -0.333608
     65          1           0       -3.904877    5.592739   -1.143029
     66          1           0       -4.187452    5.401882    0.570678
     67          1           0       -2.559121    5.607738   -0.028677
     68          1           0       -5.340053    0.258247   -1.012046
     69          1           0       -6.095973   -3.202092   -2.126209
     70          1           0       -6.446525   -2.277443   -0.685651
     71          1           0       -6.190758   -1.459291   -2.208240
     72          1           0       -1.017358   -4.284207   -0.949063
     73          1           0       -0.710074   -2.263590    2.281594
     74          1           0       -2.418656    0.738197    4.558825
     75          1           0       -2.083544    1.684832    2.243970
     76          1           0       -0.857409   -2.764276    4.921779
     77          1           0       -1.214078   -1.406821    5.962533
     78          1           0       -2.516451   -2.357627    5.289585
     79          1           0        2.154883   -5.328965   -0.730554
     80          1           0        1.866703   -5.198698    0.987890
     81          1           0        0.523105   -5.403533   -0.110224
     82          1           0       -6.341332    1.969174   -0.957005
     83          1           0       -7.122637    4.433125   -0.957820
     84          1           0       -6.129060    4.515874    0.604440
     85          1           0       -4.553297   -6.349683   -2.241950
     86          1           0       -5.516009   -5.158369   -1.198562
     87          1           0       -2.527300   -5.023874   -1.843063
 ---------------------------------------------------------------------

 SCF Done:  E(RPBE1PBE) =  -3362.23233934     A.U. after   34 cycles

 The electronic state is 1-A.
 Alpha  occ. eigenvalues -- -256.31871 -30.08369 -25.91226 -25.90853 -25.90819
 Alpha  occ. eigenvalues --  -19.25670 -19.24499 -19.17171 -19.16997 -14.46474
 Alpha  occ. eigenvalues --  -14.40808 -14.36891 -14.36598 -14.36402 -14.36011
 Alpha  occ. eigenvalues --  -10.34538 -10.33845 -10.28758 -10.27411 -10.24467
 Alpha  occ. eigenvalues --  -10.24272 -10.24183 -10.24008 -10.23870 -10.23851
 Alpha  occ. eigenvalues --  -10.23805 -10.23660 -10.23573 -10.23561 -10.23091
 Alpha  occ. eigenvalues --  -10.23072 -10.22943 -10.22912 -10.22828 -10.22489
 Alpha  occ. eigenvalues --  -10.22251 -10.22239 -10.22124 -10.22033 -10.21932
 Alpha  occ. eigenvalues --  -10.21923 -10.21892 -10.21891 -10.21840 -10.21632
 Alpha  occ. eigenvalues --  -10.21595 -10.21480 -10.21444 -10.21431 -10.21425
 Alpha  occ. eigenvalues --  -10.21425 -10.21396 -10.21150  -3.43390  -2.19507
 Alpha  occ. eigenvalues --   -2.18653  -2.18579  -1.18042  -1.17497  -1.08965
 Alpha  occ. eigenvalues --   -1.02691  -1.02663  -1.00324  -0.99452  -0.99208
 Alpha  occ. eigenvalues --   -0.98489  -0.93651  -0.84189  -0.83481  -0.83377
 Alpha  occ. eigenvalues --   -0.83180  -0.82420  -0.81751  -0.81422  -0.81196
 Alpha  occ. eigenvalues --   -0.79394  -0.78691  -0.77223  -0.75913  -0.75126
 Alpha  occ. eigenvalues --   -0.74076  -0.73730  -0.72789  -0.72182  -0.71582
 Alpha  occ. eigenvalues --   -0.70270  -0.69948  -0.69643  -0.66881  -0.66773
 Alpha  occ. eigenvalues --   -0.66606  -0.65595  -0.65229  -0.63852  -0.62711
 Alpha  occ. eigenvalues --   -0.61905  -0.59034  -0.58387  -0.57886  -0.56759
 Alpha  occ. eigenvalues --   -0.55473  -0.54846  -0.53809  -0.53092  -0.52739
 Alpha  occ. eigenvalues --   -0.52561  -0.52281  -0.51593  -0.51047  -0.50843
 Alpha  occ. eigenvalues --   -0.50101  -0.49621  -0.49391  -0.49135  -0.48663
 Alpha  occ. eigenvalues --   -0.48481  -0.47021  -0.46529  -0.46279  -0.46091
 Alpha  occ. eigenvalues --   -0.45803  -0.45129  -0.45028  -0.44648  -0.44576
 Alpha  occ. eigenvalues --   -0.44436  -0.44302  -0.44200  -0.43903  -0.43776
 Alpha  occ. eigenvalues --   -0.43495  -0.43264  -0.42838  -0.42642  -0.42263
 Alpha  occ. eigenvalues --   -0.42043  -0.41956  -0.41607  -0.41450  -0.40957
 Alpha  occ. eigenvalues --   -0.40543  -0.40195  -0.39936  -0.39247  -0.38944
 Alpha  occ. eigenvalues --   -0.38721  -0.38542  -0.38389  -0.38024  -0.37747
 Alpha  occ. eigenvalues --   -0.37643  -0.37049  -0.36695  -0.36438  -0.36270
 Alpha  occ. eigenvalues --   -0.35756  -0.35561  -0.35286  -0.34545  -0.34001
 Alpha  occ. eigenvalues --   -0.33943  -0.32923  -0.32659  -0.32420  -0.31529
 Alpha  occ. eigenvalues --   -0.31417  -0.30995  -0.30215  -0.29635  -0.27635
 Alpha  occ. eigenvalues --   -0.27482  -0.27334  -0.27113  -0.25288  -0.24316
 Alpha  occ. eigenvalues --   -0.24171  -0.22374  -0.21498  -0.21215  -0.19708
 Alpha  occ. eigenvalues --   -0.19315  -0.19077  -0.18828
 Alpha virt. eigenvalues --   -0.08217  -0.08070  -0.04632  -0.02398  -0.01427
 Alpha virt. eigenvalues --   -0.00402  -0.00122   0.00893   0.01097   0.01999
 Alpha virt. eigenvalues --    0.03055   0.03473   0.04014   0.04229   0.04256

 Mulliken charges:
               1
     1  C   -0.368901
     2  C    0.138991
     3  N   -0.202467
     4  C   -0.193038
     5  C    0.016820
     6  N    0.005993
     7  C   -0.482464
     8  C   -0.484090
     9  C   -0.489355
    10  C   -0.474922
    11  C    0.312760
    12  C    0.038203
    13  C   -0.063363
    14  C    0.249808
    15  C   -0.404775
    16  C   -0.452078
    17  C   -0.107311
    18  C    0.236457
    19  O   -0.327042
    20  O   -0.350434
    21  C    0.321805
    22  C   -0.167007
    23  C    0.046943
    24  C    0.312903
    25  C   -0.319362
    26  C   -0.155941
    27  C   -0.330779
    28  C    0.307160
    29  C   -0.115084
    30  C    0.021516
    31  C    0.283659
    32  C   -0.406580
    33  C   -0.136299
    34  C   -0.328255
    35  C    0.297957
    36  C   -0.103519
    37  C    0.017163
    38  C    0.279085
    39  C   -0.403437
    40  C   -0.287822
    41  C   -0.290693
    42  C    0.278019
    43  O   -0.303201
    44  O   -0.332453
    45  N   -0.119922
    46  N   -0.153542
    47  N   -0.125457
    48  N   -0.155990
    49  Fe  -0.044245
    50  H    0.355270
    51  H    0.130883
    52  H    0.108950
    53  H    0.130016
    54  H    0.138353
    55  H    0.349949
    56  H    0.128474
    57  H    0.146940
    58  H    0.115084
    59  H    0.133170
    60  H    0.116093
    61  H    0.143468
    62  H    0.133401
    63  H    0.130752
    64  H    0.110565
    65  H    0.141234
    66  H    0.120963
    67  H    0.119092
    68  H    0.104616
    69  H    0.146059
    70  H    0.144429
    71  H    0.131391
    72  H    0.078206
    73  H    0.147995
    74  H    0.233367
    75  H    0.172876
    76  H    0.152069
    77  H    0.132080
    78  H    0.146319
    79  H    0.137688
    80  H    0.142692
    81  H    0.125991
    82  H    0.115055
    83  H    0.136779
    84  H    0.128634
    85  H    0.135446
    86  H    0.141302
    87  H    0.108939
 Sum of Mulliken charges =  -0.00000

 Dipole moment (field-independent basis, Debye):
    X=             -2.6544    Y=              3.0323    Z=              3.2023  Tot=              5.1473
 Quadrupole moment (field-independent basis, Debye-Ang):
   XX=           -308.1639   YY=           -260.8393   ZZ=           -264.2498
   XY=             17.3825   XZ=            -37.3132   YZ=              8.7399

  Exact polarizability: 856.041 -18.324 802.439  43.882  30.471 348.781
 Approx polarizability:1457.533 -52.0261490.030  98.436  74.525 561.604

 Normal termination of Gaussian 16 at Fri Aug 26 12:05:07 2022.
