 Gaussian 16, Revision A.03,
 Gaussian 16:  ES64L-G16RevA.03 25-Dec-2016

 ----------------------------------------------------------------------
 # PBE1PBE/def2TZVP empiricaldispersion=GD3BJ scf=maxcycle=999 geom=che
 ck pop=nbo
 ----------------------------------------------------------------------

 ----------
 451c_III_D
 ----------
 Structure from the checkpoint file:  "451c_III_D.chk"
 Charge =  1 Multiplicity = 2

                         Standard orientation:
 ---------------------------------------------------------------------
 Center     Atomic      Atomic             Coordinates (Angstroms)
 Number     Number       Type             X           Y           Z
 ---------------------------------------------------------------------
      1          6           0        3.393295   -0.854867    4.988401
      2          6           0        2.363275   -0.508978    3.925814
      3          7           0        1.034173   -0.453374    4.181899
      4          6           0        2.548730   -0.333957    2.565861
      5          6           0        0.390107   -0.245561    3.003801
      6          7           0        1.318737   -0.164601    2.005665
      7          6           0       -0.804237    2.327292   -2.792125
      8          6           0        0.522934    1.585453   -2.992157
      9         16           0        0.588841   -0.071685   -2.252399
     10          6           0       -0.945281   -0.892485   -2.739703
     11          6           0       -2.464636   -0.039004    0.573976
     12          6           0        0.876162   -3.466805    0.035230
     13          6           0        4.205148   -0.072686   -0.803207
     14          6           0        0.997857    3.324169    0.362075
     15          6           0       -1.853709   -1.271821    0.468959
     16          6           0       -2.489721   -2.489576    0.592193
     17          6           0       -1.519140   -3.475070    0.489427
     18          6           0       -0.327823   -2.833874    0.251662
     19          6           0       -1.702937   -4.976351    0.582639
     20          6           0       -3.967911   -2.687218    0.761274
     21          6           0       -4.603178   -2.620754   -0.607907
     22          6           0       -6.104652   -2.808629   -0.504068
     23          8           0       -6.593533   -3.177315    0.560110
     24          8           0       -6.698363   -3.148107   -1.599201
     25          6           0        2.084675   -2.853297   -0.219407
     26          6           0        3.273456   -3.519626   -0.510320
     27          6           0        4.220326   -2.545216   -0.844828
     28          6           0        3.600102   -1.303616   -0.648485
     29          6           0        3.462952   -5.021208   -0.521973
     30          6           0        5.633203   -2.753981   -1.352955
     31          6           0        5.688020   -3.369498   -2.748270
     32          6           0        3.614044    1.161679   -0.580603
     33          6           0        4.272903    2.384609   -0.614192
     34          6           0        3.384640    3.334519   -0.118506
     35          6           0        2.173060    2.701405    0.020806
     36          6           0        5.732350    2.595123   -0.974208
     37          6           0        3.669916    4.780095    0.265985
     38          6           0        4.113733    5.634418   -0.916541
     39          6           0       -0.223163    2.708062    0.484248
     40          6           0       -1.420507    3.374793    0.722392
     41          6           0       -2.427300    2.418638    0.693964
     42          6           0       -1.810867    1.178847    0.534883
     43          6           0       -1.592616    4.866560    0.927591
     44          6           0       -3.911939    2.654871    0.827976
     45          6           0       -4.629756    2.643062   -0.512010
     46          6           0       -6.135750    2.779124   -0.295250
     47          8           0       -6.894364    2.290104   -1.136802
     48          8           0       -6.623440    3.662712    0.552568
     49          7           0       -0.538125   -1.490692    0.259041
     50          7           0        2.300544   -1.509329   -0.286124
     51          7           0        2.330468    1.371782   -0.194892
     52          7           0       -0.464508    1.361805    0.363168
     53         26           0        0.909356   -0.042011    0.078999
     54          1           0       -1.763205   -0.210477   -2.635950
     55          1           0       -0.872090   -1.209195   -3.759133
     56          1           0       -1.109041   -1.743854   -2.112604
     57          1           0       -0.669468    3.113354   -2.078793
     58          1           0       -1.124585    2.742921   -3.724610
     59          1           0       -1.544673    1.643206   -2.433402
     60          1           0        0.702093    1.492746   -4.042969
     61          1           0        1.306711    2.176152   -2.565931
     62          1           0        6.241528    3.047782   -0.149139
     63          1           0        6.184250    1.651374   -1.197867
     64          1           0        5.800092    3.234614   -1.829405
     65          1           0        5.225619   -0.070834   -1.124974
     66          1           0        2.562912   -5.496855   -0.192445
     67          1           0        3.693658   -5.343888   -1.515729
     68          1           0        4.266252   -5.284430    0.134018
     69          1           0        0.873560   -4.536307    0.067760
     70          1           0       -2.714403   -5.195672    0.854182
     71          1           0       -1.483388   -5.422079   -0.365002
     72          1           0       -1.040800   -5.371360    1.324557
     73          1           0       -4.367881   -1.914633    1.384200
     74          1           0       -4.157510   -3.643312    1.202677
     75          1           0       -4.395937   -1.667575   -1.047679
     76          1           0       -4.192507   -3.391793   -1.225764
     77          1           0       -7.612299   -2.894853   -1.748141
     78          1           0       -7.837832    2.461083   -1.089534
     79          1           0       -4.281471    3.459997   -1.108848
     80          1           0       -4.425214    1.721909   -1.016530
     81          1           0       -4.069573    3.604252    1.295657
     82          1           0       -4.328473    1.889910    1.449455
     83          1           0       -1.880250    5.056404    1.940570
     84          1           0       -0.668352    5.364114    0.720043
     85          1           0       -2.350754    5.232324    0.267027
     86          1           0       -3.527649   -0.024263    0.695167
     87          1           0        1.036798    4.377121    0.548292
     88          1           0        4.849851   -3.277349   -3.406967
     89          1           0        6.564623   -3.893226   -3.067919
     90          1           0        6.505240   -2.495488   -0.789365
     91          1           0        3.783256    6.648875   -0.997553
     92          1           0        4.755637    5.219442   -1.665309
     93          1           0        3.569396    5.157137    1.262295
     94          1           0        2.913945   -0.916826    5.943013
     95          1           0        3.844928   -1.796211    4.754308
     96          1           0        4.146208   -0.095090    5.016005
     97          1           0        3.485807   -0.332006    2.049349
     98          1           0        0.603325   -0.548463    5.079300
     99          1           0       -0.669075   -0.159584    2.878737
 ---------------------------------------------------------------------

 SCF Done:  E(UPBE1PBE) =  -3879.16443964     A.U. after  145 cycles

 Alpha virt. eigenvalues --    0.92443   0.92792   0.93032   0.93297   0.93381
 Alpha virt. eigenvalues --    0.93688   0.93896   0.94487   0.94571   0.94792
 Alpha virt. eigenvalues --    0.95021   0.95481   0.95742   0.96057   0.96204

  Beta  occ. eigenvalues -- -256.50111 -89.14239 -30.26525 -26.09558 -26.09373
  Beta  occ. eigenvalues --  -26.08674 -19.34843 -19.32143 -19.25711 -19.24367
  Beta  occ. eigenvalues --  -14.56264 -14.52179 -14.48265 -14.47849 -14.47737
  Beta  occ. eigenvalues --  -14.47664 -10.43355 -10.42526 -10.40006 -10.37037
  Beta  occ. eigenvalues --  -10.34928 -10.34906 -10.34678 -10.34634 -10.34593
  Beta  occ. eigenvalues --  -10.34545 -10.34503 -10.34466 -10.34396 -10.34351
  Beta  occ. eigenvalues --  -10.34094 -10.34048 -10.33798 -10.33341 -10.32624
  Beta  occ. eigenvalues --  -10.32349 -10.32335 -10.32334 -10.32286 -10.32219
  Beta  occ. eigenvalues --  -10.32191 -10.32080 -10.32056 -10.32053 -10.32031
  Beta  occ. eigenvalues --  -10.31824 -10.31644 -10.31565 -10.31411 -10.31180
  Beta  occ. eigenvalues --  -10.30922 -10.30392 -10.29945 -10.29887 -10.29857
  Beta  occ. eigenvalues --  -10.29590 -10.29272  -8.12012  -6.05635  -6.05374
  Beta  occ. eigenvalues --   -6.04902  -3.58872  -2.34178  -2.34119  -2.33601
  Beta  occ. eigenvalues --   -1.25460  -1.22320  -1.16820  -1.10677  -1.09938
  Beta  occ. eigenvalues --   -1.09326  -1.08506  -1.07896  -1.06021  -1.02691
  Beta  occ. eigenvalues --   -0.94962  -0.94473  -0.93225  -0.93051  -0.92288
  Beta  occ. eigenvalues --   -0.91937  -0.91279  -0.90761  -0.90696  -0.88908
  Beta  occ. eigenvalues --   -0.88210  -0.86705  -0.86428  -0.86174  -0.84071
  Beta  occ. eigenvalues --   -0.83154  -0.82330  -0.82102  -0.81043  -0.79989
  Beta  occ. eigenvalues --   -0.79386  -0.79305  -0.78582  -0.78178  -0.76680
  Beta  occ. eigenvalues --   -0.76559  -0.76429  -0.73295  -0.72984  -0.71897
  Beta  occ. eigenvalues --   -0.71409  -0.70733  -0.70510  -0.69671  -0.69137
  Beta  occ. eigenvalues --   -0.67047  -0.66633  -0.65607  -0.65150  -0.63265
  Beta  occ. eigenvalues --   -0.62593  -0.62430  -0.62293  -0.60667  -0.60244
  Beta  occ. eigenvalues --   -0.59311  -0.59108  -0.58995  -0.58794  -0.58634
  Beta  occ. eigenvalues --   -0.58395  -0.58213  -0.58172  -0.57647  -0.57100
  Beta  occ. eigenvalues --   -0.56459  -0.56223  -0.55838  -0.55756  -0.55096
  Beta  occ. eigenvalues --   -0.54792  -0.54632  -0.54171  -0.54102  -0.53920
  Beta  occ. eigenvalues --   -0.53579  -0.53475  -0.53217  -0.52970  -0.52755
  Beta  occ. eigenvalues --   -0.52464  -0.52293  -0.51835  -0.51659  -0.51423
  Beta  occ. eigenvalues --   -0.51296  -0.51237  -0.50921  -0.50760  -0.50579
  Beta  occ. eigenvalues --   -0.50176  -0.50101  -0.49775  -0.49564  -0.49251
  Beta  occ. eigenvalues --   -0.48992  -0.48731  -0.48245  -0.47911  -0.47853
  Beta  occ. eigenvalues --   -0.47788  -0.47381  -0.47282  -0.47237  -0.47018
  Beta  occ. eigenvalues --   -0.46586  -0.46432  -0.46298  -0.46149  -0.45779
  Beta  occ. eigenvalues --   -0.45303  -0.45190  -0.44113  -0.43995  -0.43911
  Beta  occ. eigenvalues --   -0.43670  -0.43574  -0.43017  -0.41697  -0.41123
  Beta  occ. eigenvalues --   -0.40123  -0.39628  -0.38983  -0.38538  -0.37922
  Beta  occ. eigenvalues --   -0.36920  -0.35981  -0.35683  -0.34804  -0.34749
  Beta  occ. eigenvalues --   -0.34373  -0.34012  -0.33229  -0.32750  -0.31986
  Beta  occ. eigenvalues --   -0.31148  -0.30151  -0.29673
  Beta virt. eigenvalues --   -0.19417  -0.18229  -0.16106  -0.14004  -0.13331
  Beta virt. eigenvalues --   -0.12488  -0.10959  -0.10379  -0.09246  -0.09218
  Beta virt. eigenvalues --   -0.08526  -0.06828  -0.06300  -0.05940  -0.04820

 Mulliken charges and spin densities:
               1          2
     1  C   -0.346811  -0.000352
     2  C    0.114727  -0.000864
     3  N   -0.191999   0.002499
     4  C   -0.185505   0.002237
     5  C   -0.003737   0.022806
     6  N    0.108927  -0.048411
     7  C   -0.358894   0.000452
     8  C   -0.145482   0.004873
     9  S    0.047032  -0.041629
    10  C   -0.361205  -0.000102
    11  C   -0.656969  -0.002623
    12  C   -0.509779  -0.004847
    13  C   -0.515002  -0.003573
    14  C   -0.530682  -0.008390
    15  C    0.230147   0.004427
    16  C    0.127728  -0.003564
    17  C   -0.090938   0.011642
    18  C    0.245322   0.002841
    19  C   -0.378200  -0.000831
    20  C   -0.349425  -0.000542
    21  C   -0.204704  -0.000073
    22  C    0.272095  -0.000032
    23  O   -0.318120  -0.000007
    24  O   -0.357229  -0.000005
    25  C    0.344283   0.002687
    26  C   -0.050767   0.015731
    27  C   -0.056671  -0.001044
    28  C    0.243096   0.008005
    29  C   -0.342009  -0.000809
    30  C   -0.266942   0.002738
    31  C   -0.287268  -0.003904
    32  C    0.331275   0.006888
    33  C   -0.060143  -0.001542
    34  C    0.022236   0.009928
    35  C    0.223474   0.003841
    36  C   -0.351742  -0.000536
    37  C   -0.269989   0.043852
    38  C   -0.257807  -0.043812
    39  C    0.303052   0.003073
    40  C   -0.060734   0.015584
    41  C    0.103943   0.002530
    42  C    0.224222   0.005326
    43  C   -0.386374  -0.000837
    44  C   -0.396497  -0.001303
    45  C   -0.124810   0.000177
    46  C    0.251850   0.000036
    47  O   -0.295667   0.000001
    48  O   -0.424805  -0.000020
    49  N   -0.024383  -0.035325
    50  N    0.010889  -0.038052
    51  N    0.035435  -0.033875
    52  N    0.104859  -0.036533
    53  Fe  -0.400253   1.140420
    54  H    0.135692  -0.000027
    55  H    0.175302  -0.001597
    56  H    0.169572  -0.000322
    57  H    0.133970  -0.000013
    58  H    0.146221   0.000266
    59  H    0.091729   0.000140
    60  H    0.155460  -0.001702
    61  H    0.151723  -0.000322
    62  H    0.152891   0.000012
    63  H    0.129461  -0.000035
    64  H    0.136416  -0.000078
    65  H    0.116863   0.000125
    66  H    0.122589  -0.000011
    67  H    0.152302   0.000654
    68  H    0.144968   0.000491
    69  H    0.127331  -0.000001
    70  H    0.142765  -0.000045
    71  H    0.149278   0.000564
    72  H    0.145966   0.000473
    73  H    0.131117  -0.000032
    74  H    0.142990  -0.000113
    75  H    0.120818  -0.000003
    76  H    0.147325   0.000007
    77  H    0.348088  -0.000006
    78  H    0.360620   0.000008
    79  H    0.144328   0.000001
    80  H    0.117103   0.000000
    81  H    0.158693  -0.000053
    82  H    0.135852   0.000105
    83  H    0.161537   0.000691
    84  H    0.129963   0.000014
    85  H    0.149301   0.000520
    86  H    0.135430   0.000087
    87  H    0.126142   0.000273
    88  H    0.158289   0.000158
    89  H    0.155270   0.000172
    90  H    0.158066  -0.000110
    91  H    0.161073   0.002340
    92  H    0.151772   0.002217
    93  H    0.171321  -0.002080
    94  H    0.130276  -0.000052
    95  H    0.158394   0.000056
    96  H    0.158626   0.000064
    97  H    0.173313  -0.000335
    98  H    0.255850  -0.000401
    99  H    0.194897  -0.001255
 Sum of Mulliken charges =   1.00000   1.00000

 Dipole moment (field-independent basis, Debye):
    X=              4.3105    Y=             -0.3953    Z=              0.1933  Tot=              4.3329
 Quadrupole moment (field-independent basis, Debye-Ang):
   XX=           -252.4554   YY=           -277.7609   ZZ=           -262.4963
   XY=              4.4905   XZ=             34.5216   YZ=             -7.0939

 Summary of Natural Population Analysis:

                                       Natural Population
                Natural  -----------------------------------------------
    Atom  No    Charge         Core      Valence    Rydberg      Total
 -----------------------------------------------------------------------
      C    1   -0.32003      0.99969     2.31725    0.00308     3.32003
      C    2    0.06405      0.99960     1.92705    0.00930     2.93595
      N    3   -0.23118      0.99968     2.72187    0.00963     3.73118
      C    4   -0.03054      0.99949     2.02163    0.00942     3.03054
      C    5    0.10845      0.99969     1.88283    0.00902     2.89155
      N    6   -0.17918      0.99968     2.65577    0.02373     3.67918
      C    7   -0.31099      0.99972     2.30557    0.00570     3.31099
      C    8   -0.26114      0.99963     2.25260    0.00890     3.26114
      S    9    0.27971      4.99932     2.70150    0.01947     7.72029
      C   10   -0.37294      0.99963     2.36461    0.00870     3.37294
      C   11   -0.11759      0.99949     2.10923    0.00887     3.11759
      C   12   -0.09513      0.99950     2.08754    0.00809     3.09513
      C   13   -0.10006      0.99950     2.09271    0.00785     3.10006
      C   14   -0.10191      0.99948     2.09432    0.00811     3.10191
      C   15    0.06848      0.99944     1.92116    0.01091     2.93152
      C   16   -0.01269      0.99944     2.00342    0.00982     3.01269
      C   17    0.00614      0.99937     1.98582    0.00867     2.99386
      C   18    0.05870      0.99943     1.93120    0.01066     2.94130
      C   19   -0.32197      0.99970     2.31867    0.00360     3.32197
      C   20   -0.21294      0.99967     2.20508    0.00819     3.21294
      C   21   -0.24819      0.99962     2.23995    0.00862     3.24819
      C   22    0.37524      0.99975     1.60718    0.01783     2.62476
      O   23   -0.27987      0.99988     3.26714    0.01284     4.27987
      O   24   -0.33702      0.99984     3.32409    0.01309     4.33702
      C   25    0.06558      0.99945     1.92437    0.01059     2.93442
      C   26    0.01899      0.99946     1.97318    0.00838     2.98101
      C   27   -0.04202      0.99943     2.03194    0.01065     3.04202
      C   28    0.08021      0.99947     1.90979    0.01053     2.91979
      C   29   -0.31840      0.99970     2.31247    0.00623     3.31840
      C   30   -0.10670      0.99972     2.10035    0.00663     3.10670
      C   31   -0.17573      0.99975     2.17118    0.00480     3.17573
      C   32    0.07304      0.99946     1.91660    0.01090     2.92696
      C   33   -0.00236      0.99944     1.99445    0.00847     3.00236
      C   34   -0.02881      0.99938     2.01865    0.01078     3.02881
      C   35    0.06574      0.99942     1.92408    0.01076     2.93426
      C   36   -0.31622      0.99970     2.31273    0.00379     3.31622
      C   37   -0.08207      0.99972     2.07568    0.00667     3.08207
      C   38   -0.18437      0.99975     2.17955    0.00507     3.18437
      C   39    0.06801      0.99944     1.92168    0.01087     2.93199
      C   40    0.00892      0.99944     1.98329    0.00835     2.99108
      C   41   -0.00930      0.99944     2.00070    0.00915     3.00930
      C   42    0.07375      0.99946     1.91616    0.01064     2.92625
      C   43   -0.31999      0.99970     2.31409    0.00620     3.31999
      C   44   -0.21290      0.99967     2.20586    0.00737     3.21290
      C   45   -0.24266      0.99962     2.23481    0.00823     3.24266
      C   46    0.37698      0.99977     1.60603    0.01722     2.62302
      O   47   -0.31321      0.99979     3.29956    0.01386     4.31321
      O   48   -0.31790      0.99992     3.30796    0.01002     4.31790
      N   49   -0.21269      0.99967     2.68732    0.02571     3.71269
      N   50   -0.20326      0.99967     2.67991    0.02368     3.70326
      N   51   -0.20725      0.99966     2.68187    0.02572     3.70725
      N   52   -0.20383      0.99966     2.68066    0.02351     3.70383
     Fe   53    0.61572      8.99576     3.36211    0.02641    12.38428
      H   54    0.11133      0.00000     0.38788    0.00079     0.38867
      H   55    0.11736      0.00000     0.38212    0.00052     0.38264
      H   56    0.12767      0.00000     0.37182    0.00051     0.37233
      H   57    0.11269      0.00000     0.38663    0.00069     0.38731
      H   58    0.11179      0.00000     0.38768    0.00052     0.38821
      H   59    0.10259      0.00000     0.39611    0.00130     0.39741
      H   60    0.11517      0.00000     0.38416    0.00067     0.38483
      H   61    0.12451      0.00000     0.37476    0.00073     0.37549
      H   62    0.11716      0.00000     0.38206    0.00078     0.38284
      H   63    0.10878      0.00000     0.39066    0.00056     0.39122
      H   64    0.11245      0.00000     0.38677    0.00078     0.38755
      H   65    0.11603      0.00000     0.38265    0.00131     0.38397
      H   66    0.10632      0.00000     0.39327    0.00041     0.39368
      H   67    0.11952      0.00000     0.37984    0.00064     0.38048
      H   68    0.11812      0.00000     0.38127    0.00061     0.38188
      H   69    0.11283      0.00000     0.38575    0.00143     0.38717
      H   70    0.11458      0.00000     0.38473    0.00069     0.38542
      H   71    0.11424      0.00000     0.38504    0.00072     0.38576
      H   72    0.11395      0.00000     0.38533    0.00072     0.38605
      H   73    0.11359      0.00000     0.38561    0.00080     0.38641
      H   74    0.11973      0.00000     0.37955    0.00072     0.38027
      H   75    0.11012      0.00000     0.38916    0.00072     0.38988
      H   76    0.12147      0.00000     0.37784    0.00069     0.37853
      H   77    0.25569      0.00000     0.24306    0.00125     0.24431
      H   78    0.26046      0.00000     0.23811    0.00142     0.23954
      H   79    0.12309      0.00000     0.37626    0.00064     0.37691
      H   80    0.10780      0.00000     0.39143    0.00076     0.39220
      H   81    0.12471      0.00000     0.37458    0.00071     0.37529
      H   82    0.10975      0.00000     0.38919    0.00106     0.39025
      H   83    0.11819      0.00000     0.38117    0.00064     0.38181
      H   84    0.10992      0.00000     0.38965    0.00044     0.39008
      H   85    0.11604      0.00000     0.38337    0.00059     0.38396
      H   86    0.11308      0.00000     0.38574    0.00118     0.38692
      H   87    0.11591      0.00000     0.38262    0.00146     0.38409
      H   88    0.10002      0.00000     0.39923    0.00075     0.39998
      H   89    0.10130      0.00000     0.39801    0.00069     0.39870
      H   90    0.11038      0.00000     0.38875    0.00086     0.38962
      H   91    0.10285      0.00000     0.39641    0.00074     0.39715
      H   92    0.09909      0.00000     0.39995    0.00097     0.40091
      H   93    0.11179      0.00000     0.38732    0.00089     0.38821
      H   94    0.11111      0.00000     0.38831    0.00057     0.38889
      H   95    0.11921      0.00000     0.38023    0.00056     0.38079
      H   96    0.11961      0.00000     0.37985    0.00054     0.38039
      H   97    0.12006      0.00000     0.37915    0.00079     0.37994
      H   98    0.21648      0.00000     0.28270    0.00082     0.28352
      H   99    0.11680      0.00000     0.38222    0.00097     0.38320
 =======================================================================
   * Total *    1.00000     64.97477   137.40327    0.62196   203.00000

 Normal termination of Gaussian 16 at Mon Feb 13 04:37:54 2023.
