 Gaussian 16, Revision A.03,
 Gaussian 16:  ES64L-G16RevA.03 25-Dec-2016

 ----------------------------------------------------------------------
 # PBE1PBE/def2TZVP scf=maxcycle=999 empiricaldispersion=GD3BJ int=(gri
 d=ultrafine) geom=check pop=nbo
 ----------------------------------------------------------------------

 ----------
 6k9j_III_H
 ----------
 Structure from the checkpoint file:  "6k9j_III_H.chk"
 Charge =  1 Multiplicity = 6

                         Standard orientation:
 ---------------------------------------------------------------------
 Center     Atomic      Atomic             Coordinates (Angstroms)
 Number     Number       Type             X           Y           Z
 ---------------------------------------------------------------------
      1          6           0        2.618348   -1.740274    4.948203
      2          6           0        1.782700   -1.236437    3.803960
      3          7           0        0.422835   -1.210439    3.837733
      4          6           0        2.116597   -0.819644    2.563162
      5          6           0       -0.011310   -0.767685    2.661519
      6          7           0        0.999592   -0.502631    1.831755
      7          6           0       -0.879830    2.803911   -2.632089
      8          6           0        0.509754    2.133586   -2.657231
      9         16           0        0.428710    0.374790   -2.287713
     10          6           0        1.756754   -0.261194   -3.256822
     11         26           0        0.868325   -0.048439   -0.085968
     12          6           0       -2.633473   -0.182732   -0.059356
     13          6           0        0.938575   -3.405888   -0.542159
     14          6           0        4.178584    0.161681   -0.487804
     15          6           0        0.705949    3.200550    0.891317
     16          7           0       -0.548895   -1.485201   -0.273287
     17          6           0       -1.927791   -1.350831   -0.337431
     18          6           0       -2.550497   -2.626175   -0.620549
     19          6           0       -1.552173   -3.539263   -0.719770
     20          6           0       -0.307421   -2.838321   -0.498457
     21          6           0       -1.652639   -5.021194   -1.027856
     22          6           0       -4.030329   -2.874243   -0.698074
     23          6           0       -4.574498   -3.234339    0.695980
     24          6           0       -6.038536   -3.654562    0.744193
     25          8           0       -6.486940   -3.937627    1.881949
     26          8           0       -6.709928   -3.729412   -0.346696
     27          7           0        2.302503   -1.409597   -0.457571
     28          6           0        2.160980   -2.731682   -0.505618
     29          6           0        3.444445   -3.323799   -0.675108
     30          6           0        4.366737   -2.342430   -0.751612
     31          6           0        3.611878   -1.092471   -0.564430
     32          6           0        3.643458   -4.839533   -0.669043
     33          6           0        5.802704   -2.411742   -1.077618
     34          6           0        6.118050   -2.973822   -2.385776
     35          7           0        2.146880    1.415845    0.093574
     36          6           0        3.506301    1.327214   -0.112776
     37          6           0        4.157087    2.564602    0.185470
     38          6           0        3.192572    3.425415    0.640747
     39          6           0        1.937173    2.692324    0.575747
     40          6           0        5.653331    2.822965    0.158287
     41          6           0        3.351691    4.768574    1.292750
     42          6           0        4.165830    5.785398    0.556992
     43          7           0       -0.655153    1.209850    0.375870
     44          6           0       -0.518119    2.557817    0.745726
     45          6           0       -1.807961    3.166738    0.930214
     46          6           0       -2.752437    2.236650    0.666053
     47          6           0       -2.024014    1.015600    0.286553
     48          6           0       -2.023560    4.630558    1.296914
     49          6           0       -4.247347    2.439800    0.608473
     50          6           0       -4.593006    3.009123   -0.766090
     51          6           0       -6.001717    3.475858   -0.976223
     52          8           0       -6.846742    3.493727   -0.072774
     53          8           0       -6.284431    3.896517   -2.173183
     54          1           0        1.996574   -2.274728    5.635703
     55          1           0        3.379228   -2.392865    4.573922
     56          1           0        3.073827   -0.911721    5.449141
     57          1           0        3.119912   -0.746339    2.198628
     58          1           0       -1.043732   -0.639729    2.411255
     59          1           0       -1.063663    3.279127   -3.572980
     60          1           0       -0.909025    3.535123   -1.851463
     61          1           0       -1.630404    2.062316   -2.454390
     62          1           0        1.069744    2.579376   -1.861880
     63          1           0        0.858972    2.210102   -3.665741
     64          1           0        2.120679   -1.164696   -2.813941
     65          1           0        1.409308   -0.464692   -4.248169
     66          1           0        2.546399    0.459762   -3.296605
     67          1           0       -3.701651   -0.210441   -0.115289
     68          1           0        0.979282   -4.472880   -0.611226
     69          1           0        5.215877    0.249378   -0.735258
     70          1           0        0.683388    4.193052    1.290481
     71          1           0       -1.052347   -5.571306   -0.333648
     72          1           0       -2.672299   -5.334553   -0.944196
     73          1           0       -1.304137   -5.203021   -2.023037
     74          1           0       -4.165118   -3.739163   -1.313415
     75          1           0       -4.483607   -1.945203   -0.974341
     76          1           0       -4.518618   -2.330444    1.265849
     77          1           0       -4.020398   -4.096236    1.004210
     78          1           0        4.555030   -4.536530   -0.197741
     79          1           0        3.283067   -4.709420   -1.668087
     80          1           0        4.333932   -5.467304   -1.192540
     81          1           0        6.973135   -3.611714   -2.303167
     82          1           0        5.283071   -3.540833   -2.741032
     83          1           0        6.329324   -2.181332   -3.072961
     84          1           0        6.042544    2.770102    1.153586
     85          1           0        6.131662    2.085136   -0.451390
     86          1           0        5.840013    3.795698   -0.246486
     87          1           0        4.757139    6.341278    1.254309
     88          1           0        4.808540    5.290598   -0.140860
     89          1           0        3.514107    6.451577    0.031291
     90          1           0       -2.556049    4.691559    2.223000
     91          1           0       -1.075537    5.116304    1.397928
     92          1           0       -2.590428    5.111306    0.527212
     93          1           0       -4.490750    3.191103    1.330413
     94          1           0       -4.698983    1.471782    0.670660
     95          1           0       -4.464591    2.193439   -1.446582
     96          1           0       -3.990137    3.887662   -0.864170
     97          1           0       -0.150374   -1.477773    4.612306
     98          1           0       -5.976270   -4.494380    2.474268
     99          1           0       -6.253566    3.288467   -2.915424
    100          1           0        2.903745    4.988200    2.239328
    101          1           0        6.560301   -2.073447   -0.401967
 ---------------------------------------------------------------------

 SCF Done:  E(UPBE1PBE) =  -3880.17924473     A.U. after   52 cycles

 Alpha virt. eigenvalues --    0.94229   0.94401   0.94844   0.95182   0.95202
 Alpha virt. eigenvalues --    0.95620   0.95872   0.96340   0.96365   0.96538
 Alpha virt. eigenvalues --    0.97070   0.97161   0.97503   0.97886   0.97981

  Beta  occ. eigenvalues -- -256.51364 -89.14309 -30.25937 -26.09663 -26.08894
  Beta  occ. eigenvalues --  -26.08148 -19.33736 -19.31546 -19.25596 -19.25178
  Beta  occ. eigenvalues --  -14.55608 -14.51054 -14.49620 -14.49598 -14.47509
  Beta  occ. eigenvalues --  -14.46970 -10.42922 -10.42325 -10.39267 -10.36324
  Beta  occ. eigenvalues --  -10.36205 -10.36140 -10.35969 -10.35872 -10.35776
  Beta  occ. eigenvalues --  -10.35652 -10.35412 -10.35403 -10.34997 -10.34547
  Beta  occ. eigenvalues --  -10.33946 -10.33564 -10.32919 -10.32651 -10.32565
  Beta  occ. eigenvalues --  -10.32520 -10.32464 -10.32417 -10.32321 -10.32156
  Beta  occ. eigenvalues --  -10.32068 -10.32011 -10.31935 -10.31893 -10.31869
  Beta  occ. eigenvalues --  -10.31740 -10.31527 -10.31355 -10.31224 -10.30806
  Beta  occ. eigenvalues --  -10.30422 -10.30218 -10.30004 -10.29997 -10.29737
  Beta  occ. eigenvalues --  -10.29179 -10.28132  -8.12267  -6.05855  -6.05590
  Beta  occ. eigenvalues --   -6.05184  -3.56648  -2.33351  -2.32083  -2.28694
  Beta  occ. eigenvalues --   -1.23814  -1.21109  -1.17562  -1.10861  -1.10171
  Beta  occ. eigenvalues --   -1.08319  -1.08238  -1.07378  -1.06359  -1.02797
  Beta  occ. eigenvalues --   -0.95770  -0.95372  -0.94349  -0.93584  -0.92945
  Beta  occ. eigenvalues --   -0.91937  -0.91620  -0.91292  -0.91220  -0.88888
  Beta  occ. eigenvalues --   -0.87964  -0.87814  -0.87529  -0.86144  -0.85705
  Beta  occ. eigenvalues --   -0.84136  -0.83402  -0.82612  -0.81946  -0.81600
  Beta  occ. eigenvalues --   -0.79895  -0.78256  -0.77772  -0.77705  -0.76409
  Beta  occ. eigenvalues --   -0.76291  -0.75958  -0.74241  -0.72945  -0.72646
  Beta  occ. eigenvalues --   -0.72279  -0.71350  -0.71010  -0.69785  -0.68703
  Beta  occ. eigenvalues --   -0.67297  -0.65574  -0.65493  -0.64695  -0.64259
  Beta  occ. eigenvalues --   -0.62980  -0.62687  -0.61889  -0.60717  -0.60670
  Beta  occ. eigenvalues --   -0.60514  -0.60320  -0.59759  -0.59647  -0.59307
  Beta  occ. eigenvalues --   -0.58758  -0.58527  -0.58371  -0.58080  -0.56996
  Beta  occ. eigenvalues --   -0.56459  -0.55702  -0.55433  -0.55244  -0.55090
  Beta  occ. eigenvalues --   -0.54704  -0.54492  -0.54322  -0.54205  -0.54025
  Beta  occ. eigenvalues --   -0.53727  -0.53626  -0.53469  -0.53418  -0.53278
  Beta  occ. eigenvalues --   -0.52915  -0.52643  -0.52583  -0.52219  -0.52019
  Beta  occ. eigenvalues --   -0.51913  -0.51759  -0.51395  -0.51055  -0.50933
  Beta  occ. eigenvalues --   -0.50632  -0.50086  -0.49985  -0.49680  -0.49521
  Beta  occ. eigenvalues --   -0.49320  -0.49057  -0.48987  -0.48502  -0.48295
  Beta  occ. eigenvalues --   -0.47932  -0.47786  -0.47614  -0.47228  -0.47168
  Beta  occ. eigenvalues --   -0.46684  -0.46617  -0.46415  -0.45880  -0.45735
  Beta  occ. eigenvalues --   -0.45520  -0.45094  -0.44580  -0.44226  -0.44061
  Beta  occ. eigenvalues --   -0.43574  -0.43189  -0.42810  -0.42647  -0.42475
  Beta  occ. eigenvalues --   -0.41323  -0.40444  -0.39526  -0.39033  -0.38847
  Beta  occ. eigenvalues --   -0.38748  -0.37296  -0.35961  -0.35136  -0.34992
  Beta  occ. eigenvalues --   -0.34760  -0.34472  -0.33422  -0.33201  -0.30665
  Beta  occ. eigenvalues --   -0.29942  -0.28585
  Beta virt. eigenvalues --   -0.19737  -0.18217  -0.17088  -0.15887  -0.14499
  Beta virt. eigenvalues --   -0.13542  -0.11213  -0.10142  -0.09598  -0.09009
  Beta virt. eigenvalues --   -0.08422  -0.08072  -0.07717  -0.06890  -0.06651

 Mulliken charges and spin densities:
               1          2
     1  C   -0.351157   0.000065
     2  C    0.135340   0.002138
     3  N   -0.197191   0.001192
     4  C   -0.203577   0.001558
     5  C    0.005195   0.009424
     6  N    0.100157  -0.022683
     7  C   -0.388095  -0.001056
     8  C   -0.129837   0.006152
     9  S    0.072182  -0.027015
    10  C   -0.381752   0.000045
    11  Fe  -0.381678   2.974504
    12  C   -0.554444  -0.027092
    13  C   -0.573105   0.024934
    14  C   -0.540556   0.036371
    15  C   -0.492095  -0.018960
    16  N   -0.040446   0.051615
    17  C    0.312943   0.035646
    18  C    0.080593  -0.001433
    19  C   -0.113418   0.031113
    20  C    0.353508  -0.005523
    21  C   -0.395412  -0.000856
    22  C   -0.321403   0.000856
    23  C   -0.259031  -0.000013
    24  C    0.316482   0.000023
    25  O   -0.302367   0.000008
    26  O   -0.359330   0.000039
    27  N   -0.023140  -0.027281
    28  C    0.320981  -0.020243
    29  C   -0.196107   0.078783
    30  C    0.008072  -0.113095
    31  C    0.165410   0.005746
    32  C   -0.604992   0.007481
    33  C   -0.282170   0.964655
    34  C   -0.308327  -0.062078
    35  N    0.000035   0.070791
    36  C    0.346968  -0.028192
    37  C   -0.092642   0.187260
    38  C    0.003772  -0.144375
    39  C    0.184923   0.045797
    40  C   -0.335700  -0.009294
    41  C   -0.218282   0.943094
    42  C   -0.307154  -0.062953
    43  N    0.052749  -0.075130
    44  C    0.323170   0.034526
    45  C   -0.144240  -0.001348
    46  C    0.076242   0.003505
    47  C    0.166628   0.031021
    48  C   -0.375611  -0.000787
    49  C   -0.184022  -0.001063
    50  C   -0.257036   0.000490
    51  C    0.316613   0.000126
    52  O   -0.309516  -0.000000
    53  O   -0.361111   0.000036
    54  H    0.131017   0.000041
    55  H    0.158822   0.000002
    56  H    0.160359   0.000079
    57  H    0.157870   0.000314
    58  H    0.187520  -0.000133
    59  H    0.147798  -0.000360
    60  H    0.130818   0.000181
    61  H    0.137308   0.000232
    62  H    0.141087  -0.000898
    63  H    0.153548  -0.000237
    64  H    0.162037  -0.000069
    65  H    0.175980  -0.001618
    66  H    0.158999  -0.000141
    67  H    0.112913   0.001249
    68  H    0.174805  -0.000744
    69  H    0.128937  -0.000005
    70  H    0.111197   0.006818
    71  H    0.152415   0.000825
    72  H    0.136638   0.000396
    73  H    0.157816   0.001241
    74  H    0.140384   0.000247
    75  H    0.120110  -0.000068
    76  H    0.129646   0.000067
    77  H    0.132485  -0.000018
    78  H    0.244375   0.017239
    79  H    0.243246  -0.002509
    80  H    0.273043   0.003908
    81  H    0.141662   0.021939
    82  H    0.112313   0.006851
    83  H    0.144485   0.053813
    84  H    0.153038   0.009019
    85  H    0.131451   0.000811
    86  H    0.130009   0.004173
    87  H    0.139888   0.017640
    88  H    0.109145   0.007337
    89  H    0.142362   0.046448
    90  H    0.161063   0.000345
    91  H    0.129261   0.000060
    92  H    0.138557   0.000037
    93  H    0.127678   0.000040
    94  H    0.112876  -0.000040
    95  H    0.121344  -0.000031
    96  H    0.126057  -0.000017
    97  H    0.250368   0.000553
    98  H    0.351461   0.000000
    99  H    0.346226  -0.000000
   100  H    0.153244  -0.045467
   101  H    0.159323  -0.048071
 Sum of Mulliken charges =   1.00000   5.00000

 Dipole moment (field-independent basis, Debye):
    X=             11.6965    Y=             -1.5673    Z=              2.4014  Tot=             12.0429
 Quadrupole moment (field-independent basis, Debye-Ang):
   XX=           -310.2825   YY=           -269.4294   ZZ=           -255.4231
   XY=              5.5775   XZ=            -10.5030   YZ=            -16.2941

 Summary of Natural Population Analysis:

                                       Natural Population
                Natural  -----------------------------------------------
    Atom  No    Charge         Core      Valence    Rydberg      Total
 -----------------------------------------------------------------------
      C    1   -0.31945      0.99969     2.31663    0.00313     3.31945
      C    2    0.05955      0.99953     1.93201    0.00891     2.94045
      N    3   -0.23134      0.99967     2.72194    0.00973     3.73134
      C    4   -0.03438      0.99942     2.02558    0.00939     3.03438
      C    5    0.11276      0.99965     1.87680    0.01079     2.88724
      N    6   -0.18445      0.99969     2.65554    0.02923     3.68445
      C    7   -0.30841      0.99973     2.30284    0.00585     3.30841
      C    8   -0.27047      0.99969     2.26095    0.00984     3.27047
      S    9    0.32214      4.99912     2.65561    0.02313     7.67786
      C   10   -0.38500      0.99965     2.37576    0.00958     3.38500
     Fe   11    1.54543      8.99518     2.42598    0.03340    11.45457
      C   12   -0.13614      0.99947     2.12837    0.00830     3.13614
      C   13   -0.09857      0.99949     2.09077    0.00831     3.09857
      C   14   -0.10718      0.99948     2.10002    0.00768     3.10718
      C   15   -0.12903      0.99946     2.12161    0.00795     3.12903
      N   16   -0.17596      0.99971     2.65776    0.01849     3.67596
      C   17    0.10153      0.99951     1.88910    0.00986     2.89847
      C   18   -0.00872      0.99943     1.99999    0.00930     3.00872
      C   19    0.01094      0.99943     1.98135    0.00828     2.98906
      C   20    0.07865      0.99949     1.91200    0.00986     2.92135
      C   21   -0.32184      0.99970     2.31845    0.00369     3.32184
      C   22   -0.21042      0.99967     2.20253    0.00822     3.21042
      C   23   -0.25727      0.99964     2.24916    0.00847     3.25727
      C   24    0.38097      0.99974     1.60284    0.01645     2.61903
      O   25   -0.32288      0.99980     3.30773    0.01535     4.32288
      O   26   -0.28329      0.99991     3.27268    0.01071     4.28329
      N   27   -0.21337      0.99966     2.68709    0.02661     3.71337
      C   28    0.06168      0.99946     1.92703    0.01183     2.93832
      C   29    0.06434      0.99919     1.92517    0.01129     2.93566
      C   30   -0.12038      0.99941     2.11120    0.00977     3.12038
      C   31    0.09676      0.99951     1.89357    0.01016     2.90324
      C   32   -0.60393      0.99953     2.57379    0.03061     3.60393
      C   33    0.39672      0.99968     1.59663    0.00696     2.60328
      C   34   -0.35798      0.99971     2.35169    0.00657     3.35798
      N   35   -0.16952      0.99969     2.65187    0.01797     3.66952
      C   36    0.06975      0.99950     1.92072    0.01003     2.93025
      C   37    0.08021      0.99942     1.91221    0.00816     2.91979
      C   38   -0.09941      0.99945     2.09078    0.00918     3.09941
      C   39    0.11913      0.99949     1.87141    0.00997     2.88087
      C   40   -0.31979      0.99969     2.31404    0.00605     3.31979
      C   41    0.39680      0.99971     1.59905    0.00445     2.60320
      C   42   -0.35489      0.99972     2.34958    0.00559     3.35489
      N   43   -0.24384      0.99970     2.71683    0.02731     3.74384
      C   44    0.09589      0.99949     1.89360    0.01103     2.90411
      C   45   -0.01265      0.99940     2.00487    0.00838     3.01265
      C   46   -0.00205      0.99942     1.99377    0.00886     3.00205
      C   47    0.09439      0.99951     1.89580    0.01030     2.90561
      C   48   -0.31877      0.99970     2.31296    0.00611     3.31877
      C   49   -0.21250      0.99967     2.20495    0.00788     3.21250
      C   50   -0.25419      0.99963     2.24621    0.00835     3.25419
      C   51    0.38153      0.99973     1.60190    0.01684     2.61847
      O   52   -0.26817      0.99989     3.25602    0.01226     4.26817
      O   53   -0.34202      0.99983     3.32825    0.01394     4.34202
      H   54    0.11192      0.00000     0.38751    0.00057     0.38808
      H   55    0.12058      0.00000     0.37890    0.00052     0.37942
      H   56    0.11842      0.00000     0.38098    0.00060     0.38158
      H   57    0.11527      0.00000     0.38394    0.00079     0.38473
      H   58    0.11433      0.00000     0.38478    0.00090     0.38567
      H   59    0.11137      0.00000     0.38812    0.00051     0.38863
      H   60    0.11037      0.00000     0.38889    0.00074     0.38963
      H   61    0.10987      0.00000     0.38894    0.00118     0.39013
      H   62    0.12252      0.00000     0.37634    0.00113     0.37748
      H   63    0.12004      0.00000     0.37920    0.00076     0.37996
      H   64    0.12553      0.00000     0.37383    0.00064     0.37447
      H   65    0.11826      0.00000     0.38121    0.00053     0.38174
      H   66    0.11726      0.00000     0.38193    0.00081     0.38274
      H   67    0.11230      0.00000     0.38637    0.00133     0.38770
      H   68    0.12368      0.00000     0.37490    0.00142     0.37632
      H   69    0.11666      0.00000     0.38213    0.00122     0.38334
      H   70    0.11582      0.00000     0.38290    0.00129     0.38418
      H   71    0.11511      0.00000     0.38424    0.00065     0.38489
      H   72    0.11185      0.00000     0.38748    0.00067     0.38815
      H   73    0.11750      0.00000     0.38178    0.00072     0.38250
      H   74    0.12148      0.00000     0.37767    0.00085     0.37852
      H   75    0.11295      0.00000     0.38620    0.00086     0.38705
      H   76    0.11387      0.00000     0.38529    0.00084     0.38613
      H   77    0.11076      0.00000     0.38828    0.00096     0.38924
      H   78    0.21631      0.00000     0.28241    0.00128     0.28369
      H   79    0.20950      0.00000     0.28934    0.00116     0.29050
      H   80    0.20087      0.00000     0.29838    0.00075     0.29913
      H   81    0.12619      0.00000     0.37334    0.00047     0.37381
      H   82    0.11015      0.00000     0.38908    0.00077     0.38985
      H   83    0.14313      0.00000     0.35642    0.00045     0.35687
      H   84    0.12029      0.00000     0.37913    0.00059     0.37971
      H   85    0.10958      0.00000     0.39002    0.00041     0.39042
      H   86    0.11466      0.00000     0.38474    0.00059     0.38534
      H   87    0.12276      0.00000     0.37679    0.00045     0.37724
      H   88    0.10970      0.00000     0.38968    0.00062     0.39030
      H   89    0.13880      0.00000     0.36082    0.00038     0.36120
      H   90    0.11780      0.00000     0.38156    0.00064     0.38220
      H   91    0.11088      0.00000     0.38870    0.00042     0.38912
      H   92    0.11277      0.00000     0.38654    0.00069     0.38723
      H   93    0.12265      0.00000     0.37647    0.00089     0.37735
      H   94    0.11156      0.00000     0.38761    0.00083     0.38844
      H   95    0.11117      0.00000     0.38791    0.00092     0.38883
      H   96    0.11797      0.00000     0.38114    0.00089     0.38203
      H   97    0.21465      0.00000     0.28459    0.00076     0.28535
      H   98    0.25488      0.00000     0.24403    0.00109     0.24512
      H   99    0.25383      0.00000     0.24505    0.00112     0.24617
      H  100    0.08498      0.00000     0.41419    0.00082     0.41502
      H  101    0.08628      0.00000     0.41293    0.00079     0.41372
 =======================================================================
   * Total *    3.00000     64.97373   136.36764    0.65863   202.00000

 Normal termination of Gaussian 16 at Thu Feb  9 02:06:08 2023.
