 Gaussian 16, Revision A.03,
 Gaussian 16:  ES64L-G16RevA.03 25-Dec-2016

 ----------------------------------------------------------------------
 # PBE1PBE/def2TZVP empiricaldispersion=GD3BJ scf=maxcycle=999 geom=che
 ck pop=nbo
 ----------------------------------------------------------------------

 ---------
 6u97_II_Q
 ---------
 Structure from the checkpoint file:  "6u97_II_Q.chk"
 Charge =  0 Multiplicity = 5

                         Standard orientation:
 ---------------------------------------------------------------------
 Center     Atomic      Atomic             Coordinates (Angstroms)
 Number     Number       Type             X           Y           Z
 ---------------------------------------------------------------------
      1          6           0        3.101105   -1.354477    4.982334
      2          6           0        2.179313   -0.879700    3.908946
      3          7           0        0.858977   -0.558060    4.112472
      4          6           0        2.392221   -0.757279    2.597601
      5          6           0        0.312101   -0.231984    2.965759
      6          7           0        1.196849   -0.351046    2.021651
      7          1           0        4.020043   -1.683175    4.543689
      8          1           0        2.646494   -2.167343    5.509095
      9          1           0        0.454898   -0.570153    4.871566
     10          1           0        3.192643   -0.915166    2.152139
     11          1           0       -0.569440    0.042282    2.847657
     12          6           0       -0.085785    2.863147   -2.782704
     13          6           0        0.975839    1.782390   -2.886368
     14         16           0        0.396357    0.184148   -2.239507
     15          6           0        1.374269   -0.911828   -3.197002
     16          1           0       -0.541728    2.823633   -1.815515
     17          1           0       -0.830336    2.705037   -3.534732
     18          1           0        1.217753    1.661536   -3.818107
     19          1           0        1.754960    2.051078   -2.373715
     20          1           0        1.178476   -1.823900   -2.930695
     21          1           0        1.160106   -0.788262   -4.134515
     22          1           0        2.311510   -0.715694   -3.042859
     23          6           0       -2.509699   -0.218745    0.415055
     24          6           0        0.987897   -3.447857   -0.312719
     25          6           0        4.207713    0.102820   -0.612342
     26          6           0        0.760419    3.242548    0.647682
     27          6           0       -1.872074   -1.421767    0.307534
     28          6           0       -2.456056   -2.755678    0.331709
     29          6           0       -1.511459   -3.634337    0.064286
     30          6           0       -0.266802   -2.891367   -0.117823
     31          6           0       -1.634175   -5.131145   -0.007902
     32          6           0       -3.921695   -3.014501    0.646388
     33          6           0       -4.873338   -2.557612   -0.416712
     34          6           0       -6.339669   -2.712456   -0.043588
     35          8           0       -6.695284   -3.337147    0.995661
     36          8           0       -7.173995   -2.144577   -0.817757
     37          6           0        2.159129   -2.748536   -0.488872
     38          6           0        3.426475   -3.382138   -0.770641
     39          6           0        4.313392   -2.381607   -0.898097
     40          6           0        3.646212   -1.141866   -0.653769
     41          6           0        3.630702   -4.880655   -0.946767
     42          6           0        5.800934   -2.472112   -1.331313
     43          6           0        6.030802   -3.056820   -2.582690
     44          6           0        3.587306    1.293672   -0.269565
     45          6           0        4.188983    2.591882   -0.055831
     46          6           0        3.228527    3.431567    0.328176
     47          6           0        1.980275    2.686730    0.366654
     48          6           0        5.668944    2.846115   -0.229912
     49          6           0        3.380038    4.880230    0.774632
     50          6           0        4.021071    5.799315   -0.027023
     51          6           0       -0.453514    2.598330    0.623010
     52          6           0       -1.742360    3.237236    0.677239
     53          6           0       -2.645773    2.270851    0.582913
     54          6           0       -1.960813    1.024368    0.479835
     55          6           0       -2.013346    4.734251    0.818871
     56          6           0       -4.170409    2.461222    0.583482
     57          6           0       -4.707422    2.452544   -0.853688
     58          6           0       -6.183346    2.628228   -0.934416
     59          8           0       -6.817108    2.080226   -1.857316
     60          8           0       -6.781509    3.311318   -0.085644
     61          7           0       -0.539450   -1.558279    0.066893
     62          7           0        2.327067   -1.403024   -0.364211
     63          7           0        2.263578    1.407084    0.011834
     64          7           0       -0.621167    1.265921    0.443419
     65         26           0        0.864259   -0.074817    0.027991
     66          1           0        1.044536   -4.426005   -0.326736
     67          1           0        5.156314    0.160641   -0.852327
     68          1           0        0.751404    4.192096    0.890134
     69          1           0       -1.947678   -5.476031    0.853963
     70          1           0       -0.759898   -5.521154   -0.216505
     71          1           0       -2.275071   -5.373852   -0.709110
     72          1           0       -4.141305   -2.550481    1.469460
     73          1           0       -4.040399   -3.968908    0.770698
     74          1           0       -4.706559   -3.076418   -1.218700
     75          1           0       -4.703285   -1.619831   -0.596661
     76          1           0        4.562027   -5.058178   -1.152375
     77          1           0        3.072484   -5.199734   -1.672647
     78          1           0        3.387980   -5.338224   -0.126454
     79          1           0        6.515891   -2.148586   -0.777602
     80          1           0        6.937291   -3.146217   -2.918071
     81          1           0        5.284053   -3.372145   -3.115640
     82          1           0        6.170626    2.259935    0.357643
     83          1           0        5.867179    3.770285   -0.010389
     84          1           0        5.921698    2.672922   -1.151014
     85          1           0        3.023958    5.155388    1.622852
     86          1           0        4.111700    6.718461    0.266350
     87          1           0        4.381581    5.525728   -0.884348
     88          1           0       -2.925364    4.931076    0.517744
     89          1           0       -1.373697    5.235581    0.272010
     90          1           0       -1.916120    4.996067    1.758359
     91          1           0       -4.387309    3.308971    1.001686
     92          1           0       -4.583099    1.739196    1.083880
     93          1           0       -4.475776    1.604628   -1.263208
     94          1           0       -4.284499    3.175965   -1.343924
     95          1           0       -3.488650   -0.255571    0.449510
     96          1           0        3.297669   -0.553310    5.663799
     97          1           0        0.366639    3.822322   -2.924819
     98          1           0       -7.736392    3.251007   -0.007155
     99          1           0       -7.609181   -3.611235    1.101817
 ---------------------------------------------------------------------

 SCF Done:  E(UPBE1PBE) =  -3878.93146943     A.U. after  198 cycles

 Alpha virt. eigenvalues --    1.03008   1.03188   1.03454   1.03643   1.04157
 Alpha virt. eigenvalues --    1.04241   1.04653   1.04995   1.05048   1.05268
 Alpha virt. eigenvalues --    1.05798   1.06019   1.06217   1.06648   1.06743

  Beta  occ. eigenvalues -- -256.39746 -89.03720 -30.16022 -25.99079 -25.99029
  Beta  occ. eigenvalues --  -25.98045 -19.26858 -19.25699 -19.16563 -19.15596
  Beta  occ. eigenvalues --  -14.44399 -14.40760 -14.36832 -14.36785 -14.36730
  Beta  occ. eigenvalues --  -14.36702 -10.34881 -10.33436 -10.27824 -10.26976
  Beta  occ. eigenvalues --  -10.23893 -10.23881 -10.23867 -10.23733 -10.23708
  Beta  occ. eigenvalues --  -10.23590 -10.23558 -10.23495 -10.23246 -10.23012
  Beta  occ. eigenvalues --  -10.22750 -10.22058 -10.21867 -10.21182 -10.20911
  Beta  occ. eigenvalues --  -10.20717 -10.20613 -10.20575 -10.20441 -10.20294
  Beta  occ. eigenvalues --  -10.20255 -10.20210 -10.20099 -10.19956 -10.19744
  Beta  occ. eigenvalues --  -10.19705 -10.19632 -10.19106 -10.18906 -10.18191
  Beta  occ. eigenvalues --  -10.18100 -10.17977 -10.17846 -10.17715 -10.17563
  Beta  occ. eigenvalues --  -10.17075 -10.16544  -8.01573  -5.95190  -5.94920
  Beta  occ. eigenvalues --   -5.94470  -3.48270  -2.23624  -2.23227  -2.23155
  Beta  occ. eigenvalues --   -1.16658  -1.16327  -1.09183  -1.00694  -1.00495
  Beta  occ. eigenvalues --   -0.98060  -0.97201  -0.96787  -0.95989  -0.93936
  Beta  occ. eigenvalues --   -0.86063  -0.84637  -0.84255  -0.83644  -0.82717
  Beta  occ. eigenvalues --   -0.82024  -0.81780  -0.80942  -0.80456  -0.79696
  Beta  occ. eigenvalues --   -0.79061  -0.79009  -0.77452  -0.77010  -0.74898
  Beta  occ. eigenvalues --   -0.74804  -0.74181  -0.73773  -0.72688  -0.72096
  Beta  occ. eigenvalues --   -0.70155  -0.69952  -0.69444  -0.69000  -0.68666
  Beta  occ. eigenvalues --   -0.67063  -0.66699  -0.65866  -0.65207  -0.64951
  Beta  occ. eigenvalues --   -0.62876  -0.62607  -0.62250  -0.59734  -0.58383
  Beta  occ. eigenvalues --   -0.58324  -0.56006  -0.55439  -0.55129  -0.54299
  Beta  occ. eigenvalues --   -0.53041  -0.52753  -0.52199  -0.51507  -0.51244
  Beta  occ. eigenvalues --   -0.50874  -0.50743  -0.50557  -0.50319  -0.49845
  Beta  occ. eigenvalues --   -0.49710  -0.49206  -0.48925  -0.48327  -0.48007
  Beta  occ. eigenvalues --   -0.47869  -0.47802  -0.47153  -0.46772  -0.46360
  Beta  occ. eigenvalues --   -0.46109  -0.46025  -0.45578  -0.45430  -0.45171
  Beta  occ. eigenvalues --   -0.45025  -0.44856  -0.44764  -0.44669  -0.44472
  Beta  occ. eigenvalues --   -0.44027  -0.43743  -0.43492  -0.43381  -0.43317
  Beta  occ. eigenvalues --   -0.42674  -0.42372  -0.42175  -0.41620  -0.40636
  Beta  occ. eigenvalues --   -0.40492  -0.40373  -0.40209  -0.39847  -0.39737
  Beta  occ. eigenvalues --   -0.39545  -0.39418  -0.39081  -0.38856  -0.38705
  Beta  occ. eigenvalues --   -0.38614  -0.38212  -0.37999  -0.37734  -0.37232
  Beta  occ. eigenvalues --   -0.37210  -0.36894  -0.36499  -0.36288  -0.35419
  Beta  occ. eigenvalues --   -0.34968  -0.34853  -0.34362  -0.34200  -0.33751
  Beta  occ. eigenvalues --   -0.33417  -0.32931  -0.31228  -0.31120  -0.30885
  Beta  occ. eigenvalues --   -0.30462  -0.30163  -0.29165  -0.28074  -0.27267
  Beta  occ. eigenvalues --   -0.27173  -0.26649  -0.26321  -0.25942  -0.25761
  Beta  occ. eigenvalues --   -0.25300  -0.25204  -0.23234  -0.22840  -0.21671
  Beta  occ. eigenvalues --   -0.21514  -0.17769
  Beta virt. eigenvalues --   -0.13005  -0.06532  -0.04668  -0.04630  -0.02670
  Beta virt. eigenvalues --   -0.00913  -0.00614   0.00078   0.01204   0.01325
  Beta virt. eigenvalues --    0.02353   0.02479   0.02847   0.03344   0.03665

 Mulliken charges and spin densities:
               1          2
     1  C   -0.375708  -0.000168
     2  C    0.229649  -0.000964
     3  N   -0.178609  -0.000311
     4  C   -0.243254  -0.000448
     5  C    0.034799   0.001573
     6  N    0.093438  -0.027494
     7  H    0.149123  -0.000012
     8  H    0.135651  -0.000048
     9  H    0.161107  -0.000035
    10  H    0.149714   0.000078
    11  H    0.180493  -0.000709
    12  C   -0.328657   0.003122
    13  C   -0.179872   0.002230
    14  S    0.055510  -0.038687
    15  C   -0.359771   0.004319
    16  H    0.134687  -0.001398
    17  H    0.118004  -0.000147
    18  H    0.132225  -0.000539
    19  H    0.144814  -0.001848
    20  H    0.162820  -0.000425
    21  H    0.162198  -0.001110
    22  H    0.149256  -0.001340
    23  C   -0.500060   0.144030
    24  C   -0.571232   0.125500
    25  C   -0.633265   0.156100
    26  C   -0.657014   0.148286
    27  C    0.251438   0.261970
    28  C    0.003866   0.031298
    29  C   -0.093970   0.071832
    30  C    0.295221   0.208040
    31  C   -0.383960  -0.006222
    32  C   -0.343288  -0.013232
    33  C   -0.138483   0.005998
    34  C    0.239407   0.000574
    35  O   -0.325960  -0.000064
    36  O   -0.384050   0.000492
    37  C    0.227280   0.244502
    38  C   -0.081939   0.057420
    39  C    0.044721   0.064678
    40  C    0.210543   0.175075
    41  C   -0.377725  -0.005243
    42  C   -0.242558  -0.021975
    43  C   -0.283394   0.028111
    44  C    0.298845   0.269301
    45  C   -0.088093   0.040429
    46  C    0.063235   0.074679
    47  C    0.296803   0.180344
    48  C   -0.357090  -0.003688
    49  C   -0.255250  -0.027971
    50  C   -0.283385   0.041254
    51  C    0.232624   0.250728
    52  C   -0.056279   0.064634
    53  C    0.044303   0.055255
    54  C    0.255726   0.201098
    55  C   -0.390601  -0.004520
    56  C   -0.399633  -0.013042
    57  C   -0.125201   0.006239
    58  C    0.236173   0.000732
    59  O   -0.377563   0.000845
    60  O   -0.330289  -0.000122
    61  N    0.009456   0.003348
    62  N   -0.026622   0.015956
    63  N   -0.018917   0.006725
    64  N   -0.052920  -0.000039
    65  Fe  -0.336149   1.225095
    66  H    0.114897  -0.007793
    67  H    0.119589  -0.008633
    68  H    0.109182  -0.009086
    69  H    0.137354   0.002908
    70  H    0.123964   0.000120
    71  H    0.134820   0.003552
    72  H    0.122851   0.004417
    73  H    0.120423   0.000033
    74  H    0.128506  -0.000036
    75  H    0.136834  -0.000863
    76  H    0.154174  -0.000465
    77  H    0.135797   0.003903
    78  H    0.132786   0.003005
    79  H    0.130931   0.002667
    80  H    0.127526  -0.000726
    81  H    0.142734  -0.001261
    82  H    0.130058   0.003220
    83  H    0.146417  -0.000604
    84  H    0.132777   0.002983
    85  H    0.122674   0.003135
    86  H    0.126601  -0.001655
    87  H    0.140400  -0.001647
    88  H    0.130490   0.000212
    89  H    0.141478   0.003102
    90  H    0.138114   0.003169
    91  H    0.140296   0.000704
    92  H    0.125668   0.002929
    93  H    0.145627  -0.000269
    94  H    0.126187  -0.000274
    95  H    0.114152  -0.007095
    96  H    0.142491  -0.000041
    97  H    0.114945   0.000026
    98  H    0.345864   0.000155
    99  H    0.341021   0.000118
 Sum of Mulliken charges =  -0.00000   4.00000

 Dipole moment (field-independent basis, Debye):
    X=              2.8237    Y=             -1.6370    Z=              7.2931  Tot=              7.9901
 Quadrupole moment (field-independent basis, Debye-Ang):
   XX=           -333.7875   YY=           -301.1567   ZZ=           -288.9359
   XY=              0.6963   XZ=            -32.6076   YZ=             -5.1263

 Summary of Natural Population Analysis:

                                       Natural Population
                Natural  -----------------------------------------------
    Atom  No    Charge         Core      Valence    Rydberg      Total
 -----------------------------------------------------------------------
      C    1   -0.32024      0.99970     2.31721    0.00334     3.32024
      C    2    0.05757      0.99955     1.93541    0.00747     2.94243
      N    3   -0.21901      0.99970     2.71003    0.00928     3.71901
      C    4   -0.02207      0.99940     2.01351    0.00916     3.02207
      C    5    0.11486      0.99962     1.87652    0.00900     2.88514
      N    6   -0.17325      0.99970     2.64252    0.03103     3.67325
      H    7    0.11864      0.00000     0.38088    0.00048     0.38136
      H    8    0.11013      0.00000     0.38912    0.00074     0.38987
      H    9    0.18905      0.00000     0.31009    0.00086     0.31095
      H   10    0.10117      0.00000     0.39791    0.00091     0.39883
      H   11    0.09823      0.00000     0.40069    0.00108     0.40177
      C   12   -0.30340      0.99973     2.29963    0.00405     3.30340
      C   13   -0.24089      0.99945     2.23209    0.00935     3.24089
      S   14    0.27915      4.99931     2.69980    0.02174     7.72085
      C   15   -0.35361      0.99946     2.34542    0.00872     3.35361
      H   16    0.11402      0.00000     0.38495    0.00103     0.38598
      H   17    0.10313      0.00000     0.39612    0.00075     0.39687
      H   18    0.10120      0.00000     0.39815    0.00065     0.39880
      H   19    0.10676      0.00000     0.39196    0.00128     0.39324
      H   20    0.11612      0.00000     0.38326    0.00062     0.38388
      H   21    0.10468      0.00000     0.39467    0.00065     0.39532
      H   22    0.10898      0.00000     0.39002    0.00100     0.39102
      C   23   -0.10685      0.99948     2.09876    0.00861     3.10685
      C   24   -0.10855      0.99950     2.10099    0.00806     3.10855
      C   25   -0.09768      0.99949     2.09022    0.00797     3.09768
      C   26   -0.09768      0.99949     2.09006    0.00813     3.09768
      C   27    0.21981      0.99953     1.77092    0.00974     2.78019
      C   28   -0.00374      0.99935     1.99588    0.00851     3.00374
      C   29    0.02838      0.99935     1.96423    0.00805     2.97162
      C   30    0.19003      0.99954     1.80049    0.00994     2.80997
      C   31   -0.30876      0.99961     2.30569    0.00346     3.30876
      C   32   -0.20250      0.99955     2.19705    0.00591     3.20250
      C   33   -0.22837      0.99949     2.22106    0.00782     3.22837
      C   34    0.38137      0.99980     1.60086    0.01798     2.61863
      O   35   -0.32557      0.99982     3.31293    0.01283     4.32557
      O   36   -0.30735      0.99990     3.29548    0.01197     4.30735
      C   37    0.20495      0.99951     1.78586    0.00968     2.79505
      C   38    0.01781      0.99937     1.97434    0.00848     2.98219
      C   39   -0.00806      0.99934     1.99802    0.01070     3.00806
      C   40    0.16507      0.99949     1.82565    0.00979     2.83493
      C   41   -0.30596      0.99958     2.30316    0.00322     3.30596
      C   42   -0.08312      0.99965     2.07625    0.00722     3.08312
      C   43   -0.16417      0.99969     2.15894    0.00555     3.16417
      C   44    0.21606      0.99954     1.77475    0.00964     2.78394
      C   45    0.01233      0.99937     1.97998    0.00832     2.98767
      C   46   -0.00654      0.99935     1.99658    0.01061     3.00654
      C   47    0.17782      0.99952     1.81263    0.01003     2.82218
      C   48   -0.30646      0.99959     2.30365    0.00322     3.30646
      C   49   -0.08608      0.99963     2.07908    0.00736     3.08608
      C   50   -0.16353      0.99968     2.15803    0.00582     3.16353
      C   51    0.21257      0.99952     1.77793    0.00998     2.78743
      C   52    0.00796      0.99933     1.98455    0.00816     2.99204
      C   53    0.02250      0.99933     1.96907    0.00910     2.97750
      C   54    0.17377      0.99950     1.81686    0.00987     2.82623
      C   55   -0.30596      0.99960     2.30308    0.00327     3.30596
      C   56   -0.19719      0.99954     2.19205    0.00560     3.19719
      C   57   -0.23203      0.99949     2.22490    0.00763     3.23203
      C   58    0.38079      0.99977     1.60068    0.01875     2.61921
      O   59   -0.30713      0.99989     3.29467    0.01257     4.30713
      O   60   -0.32481      0.99980     3.31173    0.01328     4.32481
      N   61   -0.20232      0.99966     2.67927    0.02340     3.70232
      N   62   -0.20622      0.99966     2.68349    0.02307     3.70622
      N   63   -0.19978      0.99965     2.67728    0.02285     3.69978
      N   64   -0.21181      0.99966     2.68910    0.02305     3.71181
     Fe   65    0.70582      8.99623     3.27111    0.02684    12.29418
      H   66    0.10003      0.00000     0.39868    0.00129     0.39997
      H   67    0.10265      0.00000     0.39630    0.00105     0.39735
      H   68    0.10272      0.00000     0.39618    0.00110     0.39728
      H   69    0.10647      0.00000     0.39282    0.00072     0.39353
      H   70    0.10464      0.00000     0.39479    0.00057     0.39536
      H   71    0.10685      0.00000     0.39246    0.00069     0.39315
      H   72    0.10178      0.00000     0.39711    0.00111     0.39822
      H   73    0.10116      0.00000     0.39783    0.00101     0.39884
      H   74    0.11239      0.00000     0.38699    0.00063     0.38761
      H   75    0.11268      0.00000     0.38668    0.00064     0.38732
      H   76    0.10859      0.00000     0.39069    0.00072     0.39141
      H   77    0.10485      0.00000     0.39439    0.00075     0.39515
      H   78    0.10440      0.00000     0.39485    0.00075     0.39560
      H   79    0.09031      0.00000     0.40890    0.00079     0.40969
      H   80    0.08719      0.00000     0.41209    0.00073     0.41281
      H   81    0.08786      0.00000     0.41143    0.00071     0.41214
      H   82    0.10442      0.00000     0.39480    0.00078     0.39558
      H   83    0.10775      0.00000     0.39149    0.00076     0.39225
      H   84    0.10469      0.00000     0.39458    0.00073     0.39531
      H   85    0.09061      0.00000     0.40857    0.00082     0.40939
      H   86    0.08785      0.00000     0.41144    0.00071     0.41215
      H   87    0.08727      0.00000     0.41199    0.00074     0.41273
      H   88    0.10348      0.00000     0.39588    0.00064     0.39652
      H   89    0.10644      0.00000     0.39287    0.00070     0.39356
      H   90    0.10603      0.00000     0.39322    0.00075     0.39397
      H   91    0.10205      0.00000     0.39686    0.00109     0.39795
      H   92    0.10039      0.00000     0.39853    0.00108     0.39961
      H   93    0.11491      0.00000     0.38442    0.00067     0.38509
      H   94    0.11068      0.00000     0.38870    0.00062     0.38932
      H   95    0.09808      0.00000     0.40066    0.00126     0.40192
      H   96    0.11084      0.00000     0.38841    0.00075     0.38916
      H   97    0.10834      0.00000     0.39094    0.00072     0.39166
      H   98    0.25567      0.00000     0.24267    0.00165     0.24433
      H   99    0.25589      0.00000     0.24247    0.00164     0.24411
 =======================================================================
   * Total *    2.00000     64.97346   136.41794    0.60859   202.00000

 Normal termination of Gaussian 16 at Mon Sep 12 09:56:46 2022.
