 Gaussian 16, Revision A.03,
 Gaussian 16:  AM64L-G16RevA.03 25-Dec-2016

 ---------------------------------------------------------------------
 # polar def2tzvp empiricaldispersion=gd3bj int=grid=ultrafine pbe1pbe
 ---------------------------------------------------------------------

 ---------
 6u97_II_S
 ---------
 Symbolic Z-matrix:
 Charge =  0 Multiplicity = 1

                         Standard orientation:
 ---------------------------------------------------------------------
 Center     Atomic      Atomic             Coordinates (Angstroms)
 Number     Number       Type             X           Y           Z
 ---------------------------------------------------------------------
      1          6           0        3.101105   -1.354477    4.982334
      2          6           0        2.179313   -0.879700    3.908946
      3          7           0        0.858977   -0.558060    4.112472
      4          6           0        2.392221   -0.757279    2.597601
      5          6           0        0.312101   -0.231984    2.965759
      6          7           0        1.196849   -0.351046    2.021651
      7          1           0        4.020043   -1.683175    4.543689
      8          1           0        2.646494   -2.167343    5.509095
      9          1           0        0.454898   -0.570153    4.871566
     10          1           0        3.192643   -0.915166    2.152139
     11          1           0       -0.569440    0.042282    2.847657
     12          6           0       -0.085785    2.863147   -2.782704
     13          6           0        0.975839    1.782390   -2.886368
     14         16           0        0.396357    0.184148   -2.239507
     15          6           0        1.374269   -0.911828   -3.197002
     16          1           0       -0.541728    2.823633   -1.815515
     17          1           0       -0.830336    2.705037   -3.534732
     18          1           0        1.217753    1.661536   -3.818107
     19          1           0        1.754960    2.051078   -2.373715
     20          1           0        1.178476   -1.823900   -2.930695
     21          1           0        1.160106   -0.788262   -4.134515
     22          1           0        2.311510   -0.715694   -3.042859
     23          6           0       -2.509699   -0.218745    0.415055
     24          6           0        0.987897   -3.447857   -0.312719
     25          6           0        4.207713    0.102820   -0.612342
     26          6           0        0.760419    3.242548    0.647682
     27          6           0       -1.872074   -1.421767    0.307534
     28          6           0       -2.456056   -2.755678    0.331709
     29          6           0       -1.511459   -3.634337    0.064286
     30          6           0       -0.266802   -2.891367   -0.117823
     31          6           0       -1.634175   -5.131145   -0.007902
     32          6           0       -3.921695   -3.014501    0.646388
     33          6           0       -4.873338   -2.557612   -0.416712
     34          6           0       -6.339669   -2.712456   -0.043588
     35          8           0       -6.695284   -3.337147    0.995661
     36          8           0       -7.173995   -2.144577   -0.817757
     37          6           0        2.159129   -2.748536   -0.488872
     38          6           0        3.426475   -3.382138   -0.770641
     39          6           0        4.313392   -2.381607   -0.898097
     40          6           0        3.646212   -1.141866   -0.653769
     41          6           0        3.630702   -4.880655   -0.946767
     42          6           0        5.800934   -2.472112   -1.331313
     43          6           0        6.030802   -3.056820   -2.582690
     44          6           0        3.587306    1.293672   -0.269565
     45          6           0        4.188983    2.591882   -0.055831
     46          6           0        3.228527    3.431567    0.328176
     47          6           0        1.980275    2.686730    0.366654
     48          6           0        5.668944    2.846115   -0.229912
     49          6           0        3.380038    4.880230    0.774632
     50          6           0        4.021071    5.799315   -0.027023
     51          6           0       -0.453514    2.598330    0.623010
     52          6           0       -1.742360    3.237236    0.677239
     53          6           0       -2.645773    2.270851    0.582913
     54          6           0       -1.960813    1.024368    0.479835
     55          6           0       -2.013346    4.734251    0.818871
     56          6           0       -4.170409    2.461222    0.583482
     57          6           0       -4.707422    2.452544   -0.853688
     58          6           0       -6.183346    2.628228   -0.934416
     59          8           0       -6.817108    2.080226   -1.857316
     60          8           0       -6.781509    3.311318   -0.085644
     61          7           0       -0.539450   -1.558279    0.066893
     62          7           0        2.327067   -1.403024   -0.364211
     63          7           0        2.263578    1.407084    0.011834
     64          7           0       -0.621167    1.265921    0.443419
     65         26           0        0.864259   -0.074817    0.027991
     66          1           0        1.044536   -4.426005   -0.326736
     67          1           0        5.156314    0.160641   -0.852327
     68          1           0        0.751404    4.192096    0.890134
     69          1           0       -1.947678   -5.476031    0.853963
     70          1           0       -0.759898   -5.521154   -0.216505
     71          1           0       -2.275071   -5.373852   -0.709110
     72          1           0       -4.141305   -2.550481    1.469460
     73          1           0       -4.040399   -3.968908    0.770698
     74          1           0       -4.706559   -3.076418   -1.218700
     75          1           0       -4.703285   -1.619831   -0.596661
     76          1           0        4.562027   -5.058178   -1.152375
     77          1           0        3.072484   -5.199734   -1.672647
     78          1           0        3.387980   -5.338224   -0.126454
     79          1           0        6.515891   -2.148586   -0.777602
     80          1           0        6.937291   -3.146217   -2.918071
     81          1           0        5.284053   -3.372145   -3.115640
     82          1           0        6.170626    2.259935    0.357643
     83          1           0        5.867179    3.770285   -0.010389
     84          1           0        5.921698    2.672922   -1.151014
     85          1           0        3.023958    5.155388    1.622852
     86          1           0        4.111700    6.718461    0.266350
     87          1           0        4.381581    5.525728   -0.884348
     88          1           0       -2.925364    4.931076    0.517744
     89          1           0       -1.373697    5.235581    0.272010
     90          1           0       -1.916120    4.996067    1.758359
     91          1           0       -4.387309    3.308971    1.001686
     92          1           0       -4.583099    1.739196    1.083880
     93          1           0       -4.475776    1.604628   -1.263208
     94          1           0       -4.284499    3.175965   -1.343924
     95          1           0       -3.488650   -0.255571    0.449510
     96          1           0        3.297669   -0.553310    5.663799
     97          1           0        0.366639    3.822322   -2.924819
     98          1           0       -7.736392    3.251007   -0.007155
     99          1           0       -7.609181   -3.611235    1.101817
 ---------------------------------------------------------------------

 SCF Done:  E(RPBE1PBE) =  -3879.04654578     A.U. after   23 cycles

 The electronic state is 1-A.
 Alpha  occ. eigenvalues -- -256.30485 -89.01060 -30.07323 -25.90109 -25.89808
 Alpha  occ. eigenvalues --  -25.89758 -19.26986 -19.25801 -19.16701 -19.15698
 Alpha  occ. eigenvalues --  -14.43065 -14.38556 -14.36135 -14.36035 -14.35971
 Alpha  occ. eigenvalues --  -14.35892 -10.35026 -10.33548 -10.26176 -10.25781
 Alpha  occ. eigenvalues --  -10.23593 -10.23408 -10.23392 -10.23303 -10.23287
 Alpha  occ. eigenvalues --  -10.23253 -10.23163 -10.23074 -10.23041 -10.23004
 Alpha  occ. eigenvalues --  -10.22173 -10.21646 -10.21639 -10.21483 -10.21191
 Alpha  occ. eigenvalues --  -10.21088 -10.20897 -10.20868 -10.20659 -10.20611
 Alpha  occ. eigenvalues --  -10.20548 -10.20318 -10.20056 -10.20042 -10.20024
 Alpha  occ. eigenvalues --  -10.19913 -10.19812 -10.19779 -10.19767 -10.19314
 Alpha  occ. eigenvalues --  -10.19263 -10.19093 -10.18677 -10.17908 -10.17748
 Alpha  occ. eigenvalues --  -10.17351 -10.16824  -7.98935  -5.92589  -5.92286
 Alpha  occ. eigenvalues --   -5.91769  -3.41786  -2.17710  -2.17113  -2.17021
 Alpha  occ. eigenvalues --   -1.16762  -1.16458  -1.07742  -1.00797  -1.00633
 Alpha  occ. eigenvalues --   -0.97792  -0.96986  -0.96572  -0.95759  -0.92315
 Alpha  occ. eigenvalues --   -0.84839  -0.84465  -0.84231  -0.83434  -0.82536
 Alpha  occ. eigenvalues --   -0.82270  -0.82008  -0.81481  -0.80979  -0.80075
 Alpha  occ. eigenvalues --   -0.79395  -0.77913  -0.77702  -0.77416  -0.75880
 Alpha  occ. eigenvalues --   -0.74473  -0.74020  -0.73687  -0.72896  -0.72300
 Alpha  occ. eigenvalues --   -0.70299  -0.70058  -0.69718  -0.67579  -0.67331
 Alpha  occ. eigenvalues --   -0.67182  -0.66864  -0.65834  -0.65534  -0.64622
 Alpha  occ. eigenvalues --   -0.62911  -0.62563  -0.61308  -0.59023  -0.58785
 Alpha  occ. eigenvalues --   -0.58402  -0.56320  -0.55608  -0.55262  -0.54221
 Alpha  occ. eigenvalues --   -0.53205  -0.52937  -0.52214  -0.51698  -0.51423
 Alpha  occ. eigenvalues --   -0.50928  -0.50696  -0.50067  -0.49536  -0.49352
 Alpha  occ. eigenvalues --   -0.49198  -0.49105  -0.48611  -0.48506  -0.47908
 Alpha  occ. eigenvalues --   -0.46913  -0.46790  -0.46553  -0.46502  -0.46279
 Alpha  occ. eigenvalues --   -0.46244  -0.45880  -0.45850  -0.45570  -0.45312
 Alpha  occ. eigenvalues --   -0.45173  -0.45086  -0.44276  -0.44215  -0.43946
 Alpha  occ. eigenvalues --   -0.43858  -0.43600  -0.43527  -0.43462  -0.42921
 Alpha  occ. eigenvalues --   -0.42730  -0.42628  -0.42445  -0.41909  -0.40913
 Alpha  occ. eigenvalues --   -0.40814  -0.40683  -0.40540  -0.40000  -0.39887
 Alpha  occ. eigenvalues --   -0.39670  -0.39396  -0.39119  -0.38985  -0.38743
 Alpha  occ. eigenvalues --   -0.38369  -0.38088  -0.37742  -0.37407  -0.37281
 Alpha  occ. eigenvalues --   -0.36960  -0.36286  -0.36021  -0.35637  -0.35543
 Alpha  occ. eigenvalues --   -0.35181  -0.34562  -0.34071  -0.32818  -0.32361
 Alpha  occ. eigenvalues --   -0.32262  -0.31818  -0.31267  -0.30992  -0.30718
 Alpha  occ. eigenvalues --   -0.29975  -0.28968  -0.28397  -0.28284  -0.27391
 Alpha  occ. eigenvalues --   -0.27015  -0.26712  -0.26274  -0.25429  -0.25248
 Alpha  occ. eigenvalues --   -0.24120  -0.23890  -0.23050  -0.22964  -0.19609
 Alpha  occ. eigenvalues --   -0.18501  -0.18288  -0.18183  -0.18136
 Alpha virt. eigenvalues --   -0.06262  -0.06192  -0.01404  -0.00517   0.01094
 Alpha virt. eigenvalues --    0.01308   0.02393   0.02634   0.02684   0.03311
 Alpha virt. eigenvalues --    0.03667   0.03860   0.04655   0.04973   0.05449

 Mulliken charges:
               1
     1  C   -0.377775
     2  C    0.230102
     3  N   -0.185789
     4  C   -0.248384
     5  C    0.027050
     6  N    0.052747
     7  H    0.145428
     8  H    0.132521
     9  H    0.156700
    10  H    0.140050
    11  H    0.172330
    12  C   -0.331762
    13  C   -0.173392
    14  S    0.014227
    15  C   -0.356346
    16  H    0.131036
    17  H    0.114226
    18  H    0.125698
    19  H    0.134612
    20  H    0.153266
    21  H    0.155673
    22  H    0.138949
    23  C   -0.441262
    24  C   -0.510405
    25  C   -0.566497
    26  C   -0.593494
    27  C    0.211935
    28  C    0.015829
    29  C   -0.093148
    30  C    0.278967
    31  C   -0.381581
    32  C   -0.345592
    33  C   -0.138114
    34  C    0.239196
    35  O   -0.325863
    36  O   -0.383269
    37  C    0.187586
    38  C   -0.073415
    39  C    0.048134
    40  C    0.194470
    41  C   -0.378112
    42  C   -0.245693
    43  C   -0.279628
    44  C    0.255228
    45  C   -0.080382
    46  C    0.066999
    47  C    0.283382
    48  C   -0.357233
    49  C   -0.257294
    50  C   -0.278518
    51  C    0.188909
    52  C   -0.048205
    53  C    0.050236
    54  C    0.235738
    55  C   -0.390139
    56  C   -0.400684
    57  C   -0.124002
    58  C    0.235682
    59  O   -0.376648
    60  O   -0.330352
    61  N    0.028408
    62  N    0.009750
    63  N    0.004068
    64  N   -0.023138
    65  Fe  -0.371062
    66  H    0.117429
    67  H    0.122375
    68  H    0.112278
    69  H    0.138649
    70  H    0.121320
    71  H    0.136250
    72  H    0.126378
    73  H    0.120941
    74  H    0.129812
    75  H    0.134914
    76  H    0.154509
    77  H    0.138542
    78  H    0.134491
    79  H    0.132847
    80  H    0.128554
    81  H    0.144588
    82  H    0.132116
    83  H    0.146231
    84  H    0.134842
    85  H    0.125021
    86  H    0.127744
    87  H    0.142147
    88  H    0.131141
    89  H    0.142567
    90  H    0.139510
    91  H    0.141055
    92  H    0.126339
    93  H    0.145410
    94  H    0.127784
    95  H    0.116015
    96  H    0.139280
    97  H    0.109193
    98  H    0.346218
    99  H    0.341555
 Sum of Mulliken charges =  -0.00000

 Dipole moment (field-independent basis, Debye):
    X=              2.9525    Y=             -1.6113    Z=              7.3809  Tot=              8.1112
 Quadrupole moment (field-independent basis, Debye-Ang):
   XX=           -324.0022   YY=           -292.0666   ZZ=           -294.6254
   XY=              1.3908   XZ=            -34.8559   YZ=             -2.5641

  Exact polarizability: 768.779   1.752 706.765 -41.629  24.741 413.753
 Approx polarizability:1316.642   3.6001301.085-116.999  83.275 669.573

 Normal termination of Gaussian 16 at Fri Sep  2 11:45:31 2022.
