 Gaussian 16, Revision A.03,

 ---------------------------------------------------------------------
 # polar def2tzvp empiricaldispersion=gd3bj int=grid=ultrafine pbe1pbe
 ---------------------------------------------------------------------

 ---------
 7aba_II_S
 ---------
 Symbolic Z-matrix:
 Charge =  0 Multiplicity = 1

 SCF Done:  E(RPBE1PBE) =  -3536.19229452     A.U. after   58 cycles

  Exact polarizability: 812.697  46.185 954.198   2.539 -34.275 302.983
 Approx polarizability:2103.9432754.518********-130.203-618.898 546.779

 Normal termination of Gaussian 16 at Fri Feb  3 16:15:29 2023.

 ----------------------------------------------------------------------
 # PBE1PBE/def2TZVP empiricaldispersion=GD3BJ int=(grid=ultrafine) geom
 =check guess=read pop=nbo
 ----------------------------------------------------------------------

 -------------
 7aba_II_S_nbo
 -------------
 Structure from the checkpoint file:  "7aba_II_S.chk"
 Charge =  0 Multiplicity = 1

 SCF Done:  E(RPBE1PBE) =  -3536.19229452     A.U. after    3 cycles

 Summary of Natural Population Analysis:

                                       Natural Population
                Natural  -----------------------------------------------
    Atom  No    Charge         Core      Valence    Rydberg      Total
 -----------------------------------------------------------------------
      C    1   -0.75077      1.99929     4.73410    0.01738     6.75077
      S    2    0.25615      9.99896     5.70718    0.03771    15.74385
      H    3    0.24562      0.00000     0.75291    0.00147     0.75438
      H    4    0.22348      0.00000     0.77552    0.00100     0.77652
     Fe    5    0.39205     17.99157     7.58830    0.02808    25.60795
      C    6   -0.23012      1.99895     4.21386    0.01731     6.23012
      C    7   -0.24565      1.99898     4.23016    0.01650     6.24565
      C    8   -0.23023      1.99897     4.21443    0.01683     6.23023
      C    9   -0.19469      1.99896     4.17883    0.01690     6.19469
      N   10   -0.44440      1.99940     5.39901    0.04599     7.44440
      C   11    0.14417      1.99907     3.83596    0.02080     5.85583
      C   12   -0.03009      1.99876     4.01294    0.01839     6.03009
      C   13   -0.02336      1.99877     4.00840    0.01620     6.02336
      C   14    0.14374      1.99909     3.83591    0.02126     5.85626
      C   15   -0.61061      1.99917     4.60489    0.00655     6.61061
      C   16   -0.37966      1.99907     4.36695    0.01365     6.37966
      C   17   -0.50060      1.99900     4.48553    0.01607     6.50060
      C   18    0.76770      1.99953     3.19894    0.03382     5.23230
      O   19   -0.62809      1.99962     6.59835    0.03012     8.62809
      O   20   -0.58956      1.99979     6.56643    0.02333     8.58956
      N   21   -0.45039      1.99939     5.40477    0.04623     7.45039
      C   22    0.14936      1.99909     3.82978    0.02177     5.85064
      C   23   -0.00760      1.99873     3.99267    0.01620     6.00760
      C   24   -0.09382      1.99874     4.07472    0.02037     6.09382
      C   25    0.14937      1.99910     3.82946    0.02207     5.85063
      C   26   -0.60152      1.99912     4.59540    0.00700     6.60152
      C   27   -0.10180      1.99890     4.08238    0.02052     6.10180
      C   28   -0.63983      1.99917     4.63304    0.00762     6.63983
      N   29   -0.42507      1.99938     5.38037    0.04532     7.42507
      C   30    0.14716      1.99911     3.83225    0.02148     5.85284
      C   31   -0.01237      1.99875     3.99735    0.01627     6.01237
      C   32   -0.08575      1.99874     4.06686    0.02015     6.08575
      C   33    0.14826      1.99908     3.83081    0.02185     5.85174
      C   34   -0.60392      1.99913     4.59778    0.00701     6.60392
      C   35   -0.11393      1.99886     4.09451    0.02055     6.11393
      C   36   -0.63592      1.99915     4.62885    0.00791     6.63592
      N   37   -0.43995      1.99939     5.39543    0.04513     7.43995
      C   38    0.12430      1.99900     3.85690    0.01980     5.87570
      C   39    0.00239      1.99917     3.98283    0.01561     5.99761
      C   40   -0.02226      1.99916     4.00646    0.01664     6.02226
      C   41    0.12575      1.99900     3.85521    0.02004     5.87425
      C   42   -0.61613      1.99915     4.61064    0.00634     6.61613
      C   43   -0.39000      1.99907     4.37847    0.01246     6.39000
      C   44   -0.49397      1.99902     4.47872    0.01624     6.49397
      C   45    0.76620      1.99955     3.19943    0.03482     5.23380
      O   46   -0.62497      1.99962     6.59503    0.03032     8.62497
      O   47   -0.59169      1.99978     6.56757    0.02434     8.59169
      H   48    0.20465      0.00000     0.79330    0.00205     0.79535
      H   49    0.20426      0.00000     0.79304    0.00270     0.79574
      H   50    0.21176      0.00000     0.78270    0.00554     0.78824
      H   51    0.20972      0.00000     0.78541    0.00488     0.79028
      H   52    0.21048      0.00000     0.78807    0.00145     0.78952
      H   53    0.20954      0.00000     0.78913    0.00133     0.79046
      H   54    0.20842      0.00000     0.79016    0.00143     0.79158
      H   55    0.21788      0.00000     0.78079    0.00133     0.78212
      H   56    0.20859      0.00000     0.78942    0.00199     0.79141
      H   57    0.21443      0.00000     0.78414    0.00143     0.78557
      H   58    0.21236      0.00000     0.78624    0.00140     0.78764
      H   59    0.21220      0.00000     0.78628    0.00152     0.78780
      H   60    0.20771      0.00000     0.79043    0.00185     0.79229
      H   61    0.20437      0.00000     0.79452    0.00112     0.79563
      H   62    0.16082      0.00000     0.83677    0.00240     0.83918
      H   63    0.21963      0.00000     0.77902    0.00135     0.78037
      H   64    0.20257      0.00000     0.79540    0.00204     0.79743
      H   65    0.20422      0.00000     0.79422    0.00156     0.79578
      H   66    0.21138      0.00000     0.78710    0.00152     0.78862
      H   67    0.20779      0.00000     0.79022    0.00199     0.79221
      H   68    0.20646      0.00000     0.79237    0.00117     0.79354
      H   69    0.15758      0.00000     0.84002    0.00240     0.84242
      H   70    0.21760      0.00000     0.78105    0.00135     0.78240
      H   71    0.20292      0.00000     0.79505    0.00203     0.79708
      H   72    0.20180      0.00000     0.79661    0.00159     0.79820
      H   73    0.20793      0.00000     0.79062    0.00144     0.79207
      H   74    0.20953      0.00000     0.78927    0.00120     0.79047
      H   75    0.21400      0.00000     0.78458    0.00141     0.78600
      H   76    0.20927      0.00000     0.78884    0.00189     0.79073
      H   77    0.21715      0.00000     0.78059    0.00226     0.78285
      H   78    0.21848      0.00000     0.78022    0.00131     0.78152
      H   79    0.20060      0.00000     0.79778    0.00162     0.79940
      H   80    0.24196      0.00000     0.75714    0.00090     0.75804
      H   81    0.17835      0.00000     0.81420    0.00745     0.82165
      H   82    0.49743      0.00000     0.50052    0.00204     0.50257
      H   83    0.49918      0.00000     0.49880    0.00202     0.50082
 =======================================================================
   * Total *    0.00000    113.95332   235.01030    1.03638   350.00000

 Normal termination of Gaussian 16 at Fri Feb  3 16:55:05 2023.
 Gaussian 16:  ES64L-G16RevA.03 25-Dec-2016

 ----------------------------------------------------------------------
 # PBE1PBE/def2TZVP empiricaldispersion=GD3BJ int=(grid=ultrafine) geom
 =check guess=read scrf=(smd,solvent=Chloroform)
 ----------------------------------------------------------------------

 --------------
 7aba_II_S_solv
 --------------
 Structure from the checkpoint file:  "7aba_II_S.chk"
 Charge =  0 Multiplicity = 1

                         Standard orientation:
 ---------------------------------------------------------------------
 Center     Atomic      Atomic             Coordinates (Angstroms)
 Number     Number       Type             X           Y           Z
 ---------------------------------------------------------------------
      1          6           0       -0.118224   -0.702271    2.897958
      2         16           0       -1.406411    0.228413    2.096209
      3          1           0        0.177730   -1.516147    2.269533
      4          1           0       -0.481049   -1.084367    3.829226
      5         26           0       -1.025748   -0.040943   -0.247034
      6          6           0        2.415686    0.050262   -0.145902
      7          6           0       -0.897602   -3.460436   -0.147775
      8          6           0       -4.454013   -0.144907   -0.306964
      9          6           0       -1.161091    3.352786   -0.723413
     10          7           0        0.484626   -1.446552   -0.196339
     11          6           0        1.835479   -1.182458   -0.072886
     12          6           0        2.534139   -2.436902    0.129932
     13          6           0        1.599721   -3.410852    0.131552
     14          6           0        0.306234   -2.803567   -0.072867
     15          6           0        1.824806   -4.931441    0.311133
     16          6           0        4.069998   -2.580711    0.322960
     17          6           0        4.772627   -2.709160   -1.025454
     18          6           0        6.252100   -2.926202   -0.847213
     19          8           0        6.968333   -2.919073   -1.882574
     20          8           0        6.715372   -3.075524    0.316117
     21          7           0       -2.407834   -1.517475   -0.264848
     22          6           0       -2.139322   -2.869890   -0.196899
     23          6           0       -3.402096   -3.579010   -0.189154
     24          6           0       -4.386460   -2.658509   -0.201824
     25          6           0       -3.774892   -1.342379   -0.264460
     26          6           0       -3.512439   -5.119045   -0.123869
     27          6           0       -5.916593   -2.849942   -0.245842
     28          6           0       -6.480411   -3.950701    0.649039
     29          7           0       -2.541036    1.355100   -0.519039
     30          6           0       -3.885439    1.104613   -0.403792
     31          6           0       -4.589055    2.372673   -0.444726
     32          6           0       -3.662313    3.350459   -0.536172
     33          6           0       -2.366241    2.714922   -0.592921
     34          6           0       -6.120734    2.512013   -0.321897
     35          6           0       -3.860200    4.880278   -0.613556
     36          6           0       -4.829926    5.365658    0.473946
     37          7           0        0.387365    1.435738   -0.406850
     38          6           0        0.081976    2.777110   -0.616960
     39          6           0        1.310348    3.522519   -0.726610
     40          6           0        2.423512    2.501990   -0.530676
     41          6           0        1.760134    1.235653   -0.349188
     42          6           0        1.446162    5.039801   -0.960891
     43          6           0        3.946992    2.754695   -0.559332
     44          6           0        4.423574    2.967774    0.872489
     45          6           0        5.929985    3.117838    0.910109
     46          8           0        6.446736    3.613072    1.939847
     47          8           0        6.595460    2.736606   -0.075413
     48          1           0        3.389600    0.091125   -0.043288
     49          1           0       -0.870051   -4.439618   -0.166984
     50          1           0       -5.431390   -0.186626   -0.264591
     51          1           0       -1.187675    4.314020   -0.911546
     52          1           0        1.334561   -5.243080    1.100064
     53          1           0        2.781088   -5.107267    0.429412
     54          1           0        1.501489   -5.405248   -0.482915
     55          1           0        4.253036   -3.371211    0.855265
     56          1           0        4.408813   -1.797861    0.786553
     57          1           0        4.629787   -1.898231   -1.537368
     58          1           0        4.396691   -3.461413   -1.509037
     59          1           0       -3.977093   -5.443036   -0.910520
     60          1           0       -4.006010   -5.373604    0.670943
     61          1           0       -2.623525   -5.505571   -0.090108
     62          1           0       -6.184701   -3.015615   -1.152219
     63          1           0       -7.104013   -3.564219    1.283038
     64          1           0       -5.755547   -4.380692    1.129261
     65          1           0       -6.939753   -4.607767    0.103364
     66          1           0       -6.472574    2.931635   -1.122602
     67          1           0       -6.334741    3.058528    0.450924
     68          1           0       -6.518045    1.633695   -0.215662
     69          1           0       -4.218656    5.106750   -1.474877
     70          1           0       -4.377458    6.000747    1.050131
     71          1           0       -5.130086    4.608835    0.999948
     72          1           0       -5.593659    5.793579    0.057811
     73          1           0        1.931105    5.444530   -0.211777
     74          1           0        0.554055    5.441716   -1.027454
     75          1           0        1.938837    5.199242   -1.793377
     76          1           0        4.136793    3.544209   -1.088978
     77          1           0        4.397733    1.986676   -0.943664
     78          1           0        4.164364    2.206041    1.414239
     79          1           0        4.012698    3.770169    1.230746
     80          1           0        0.723007   -0.065756    3.077064
     81          1           0       -2.338629   -0.589793    1.674772
     82          1           0        5.888442    3.996905    2.619979
     83          1           0        6.569277   -3.065684   -2.743306
 ---------------------------------------------------------------------

 SCF Done:  E(RPBE1PBE) =  -3536.25170206     A.U. after   18 cycles

 The electronic state is 1-A.
 Alpha  occ. eigenvalues -- -256.32846 -89.03457 -30.09346 -25.92230 -25.91814
 Alpha  occ. eigenvalues --  -25.91791 -19.26714 -19.26593 -19.17990 -19.17787
 Alpha  occ. eigenvalues --  -14.38549 -14.37742 -14.37728 -14.37235 -10.35368
 Alpha  occ. eigenvalues --  -10.35089 -10.25481 -10.25442 -10.25066 -10.24907
 Alpha  occ. eigenvalues --  -10.24756 -10.24737 -10.24664 -10.24410 -10.23711
 Alpha  occ. eigenvalues --  -10.23606 -10.23418 -10.23358 -10.23255 -10.23168
 Alpha  occ. eigenvalues --  -10.22784 -10.22404 -10.22370 -10.22280 -10.22229
 Alpha  occ. eigenvalues --  -10.21373 -10.21292 -10.21191 -10.21091 -10.20188
 Alpha  occ. eigenvalues --  -10.20117 -10.19740 -10.19590 -10.17891 -10.17870
 Alpha  occ. eigenvalues --  -10.17791 -10.17418 -10.17201 -10.16584  -8.01498
 Alpha  occ. eigenvalues --   -5.95107  -5.94745  -5.94437  -3.44246  -2.20468
 Alpha  occ. eigenvalues --   -2.19426  -2.19390  -1.16746  -1.16434  -1.03098
 Alpha  occ. eigenvalues --   -1.02615  -0.98438  -0.97415  -0.97100  -0.95127
 Alpha  occ. eigenvalues --   -0.84820  -0.83938  -0.83494  -0.83045  -0.82495
 Alpha  occ. eigenvalues --   -0.82057  -0.81940  -0.81745  -0.79705  -0.78910
 Alpha  occ. eigenvalues --   -0.78291  -0.77784  -0.76900  -0.74921  -0.73828
 Alpha  occ. eigenvalues --   -0.73430  -0.73071  -0.70869  -0.69866  -0.69136
 Alpha  occ. eigenvalues --   -0.67847  -0.67607  -0.67184  -0.66594  -0.66145
 Alpha  occ. eigenvalues --   -0.64657  -0.64034  -0.59829  -0.59574  -0.57019
 Alpha  occ. eigenvalues --   -0.56108  -0.55910  -0.54474  -0.54362  -0.53622
 Alpha  occ. eigenvalues --   -0.53017  -0.52670  -0.52073  -0.51491  -0.50993
 Alpha  occ. eigenvalues --   -0.49787  -0.49231  -0.48268  -0.48149  -0.47861
 Alpha  occ. eigenvalues --   -0.47707  -0.47357  -0.46659  -0.46356  -0.46256
 Alpha  occ. eigenvalues --   -0.46041  -0.45832  -0.45727  -0.45477  -0.44831
 Alpha  occ. eigenvalues --   -0.44676  -0.44482  -0.44150  -0.43798  -0.43681
 Alpha  occ. eigenvalues --   -0.43472  -0.43358  -0.43092  -0.42675  -0.42121
 Alpha  occ. eigenvalues --   -0.41885  -0.41785  -0.41416  -0.41098  -0.40789
 Alpha  occ. eigenvalues --   -0.40448  -0.40029  -0.39970  -0.39523  -0.39452
 Alpha  occ. eigenvalues --   -0.39386  -0.38959  -0.38712  -0.38210  -0.38063
 Alpha  occ. eigenvalues --   -0.37634  -0.37286  -0.36204  -0.35706  -0.35455
 Alpha  occ. eigenvalues --   -0.34870  -0.34446  -0.34319  -0.33858  -0.33497
 Alpha  occ. eigenvalues --   -0.32926  -0.32784  -0.31751  -0.30780  -0.29979
 Alpha  occ. eigenvalues --   -0.29207  -0.28853  -0.28795  -0.28268  -0.28168
 Alpha  occ. eigenvalues --   -0.26084  -0.25875  -0.24681  -0.23330  -0.21880
 Alpha  occ. eigenvalues --   -0.20821  -0.20440  -0.19955  -0.19771  -0.16274
 Alpha virt. eigenvalues --   -0.14538  -0.07964  -0.07395  -0.03498  -0.01416
 Alpha virt. eigenvalues --    0.01443   0.01956   0.02772   0.03109   0.03761
 Alpha virt. eigenvalues --    0.03926   0.04137   0.05039   0.05817   0.06120

 Mulliken charges:
               1
     1  C   -0.337004
     2  S   -0.082038
     3  H    0.161882
     4  H    0.172023
     5  Fe   0.013542
     6  C   -0.544748
     7  C   -0.544226
     8  C   -0.495447
     9  C   -0.540787
    10  N   -0.156215
    11  C    0.265736
    12  C    0.009415
    13  C   -0.086574
    14  C    0.219924
    15  C   -0.393034
    16  C   -0.336675
    17  C   -0.271461
    18  C    0.324134
    19  O   -0.316670
    20  O   -0.430512
    21  N   -0.140079
    22  C    0.304476
    23  C   -0.084855
    24  C   -0.113614
    25  C    0.252422
    26  C   -0.349563
    27  C   -0.228423
    28  C   -0.330932
    29  N   -0.121976
    30  C    0.319448
    31  C   -0.141421
    32  C   -0.085252
    33  C    0.264597
    34  C   -0.347937
    35  C   -0.245003
    36  C   -0.349920
    37  N   -0.097555
    38  C    0.330981
    39  C   -0.136944
    40  C   -0.068958
    41  C    0.255150
    42  C   -0.385387
    43  C   -0.257820
    44  C   -0.290622
    45  C    0.315567
    46  O   -0.308159
    47  O   -0.423083
    48  H    0.169218
    49  H    0.162235
    50  H    0.144907
    51  H    0.150129
    52  H    0.151574
    53  H    0.148098
    54  H    0.148166
    55  H    0.144733
    56  H    0.136844
    57  H    0.162068
    58  H    0.156804
    59  H    0.151099
    60  H    0.143298
    61  H    0.139003
    62  H    0.154906
    63  H    0.152750
    64  H    0.128920
    65  H    0.133521
    66  H    0.147878
    67  H    0.139715
    68  H    0.139786
    69  H    0.146173
    70  H    0.148643
    71  H    0.135096
    72  H    0.131304
    73  H    0.142704
    74  H    0.138692
    75  H    0.152615
    76  H    0.143335
    77  H    0.136557
    78  H    0.160845
    79  H    0.151466
    80  H    0.164404
    81  H    0.210291
    82  H    0.382242
    83  H    0.383577
 Sum of Mulliken charges =  -0.00000

 Dipole moment (field-independent basis, Debye):
    X=             -6.8957    Y=             -2.8824    Z=              1.8556  Tot=              7.7008
 Quadrupole moment (field-independent basis, Debye-Ang):
   XX=           -322.7503   YY=           -233.5231   ZZ=           -254.8979
   XY=             15.8305   XZ=             -8.3552   YZ=             24.5381

 Normal termination of Gaussian 16 at Fri Feb  3 20:56:55 2023.
