 Gaussian 16, Revision A.03,
 Gaussian 16:  ES64L-G16RevA.03 25-Dec-2016

 ----------------------------------------------------------------------
 # PBE1PBE/def2TZVP scf=maxcycle=999 empiricaldispersion=GD3BJ int=(gri
 d=ultrafine) geom=check pop=nbo
 ----------------------------------------------------------------------

 ----------
 1eue_III_H
 ----------
 Structure from the checkpoint file:  "1eue_III_H.chk"
 Charge =  1 Multiplicity = 6

                         Standard orientation:
 ---------------------------------------------------------------------
 Center     Atomic      Atomic             Coordinates (Angstroms)
 Number     Number       Type             X           Y           Z
 ---------------------------------------------------------------------
      1          6           0       -2.156571   -1.356066    5.434027
      2          6           0       -1.830045   -0.589672    4.193439
      3          7           0       -1.926706    0.782485    4.124473
      4          6           0       -1.441616   -1.008472    2.963848
      5          6           0       -1.607831    1.178085    2.902528
      6          7           0       -1.310003    0.109041    2.182302
      7          6           0        0.428016   -1.680378   -5.057389
      8          6           0       -0.105408   -0.823448   -3.952507
      9          7           0       -0.711598    0.388550   -4.181578
     10          6           0       -0.074633   -0.982207   -2.607050
     11          6           0       -1.033990    0.943230   -3.027673
     12          7           0       -0.660367    0.131175   -2.056446
     13          6           0        2.481324   -0.125900    0.745861
     14          6           0       -1.036117   -3.403080    0.141563
     15          6           0       -4.275878    0.103648   -0.595799
     16          6           0       -0.800886    3.389996    0.120736
     17          6           0        1.813296   -1.333693    0.605690
     18          6           0        2.435531   -2.602683    0.625444
     19          6           0        1.442428   -3.540603    0.477052
     20          6           0        0.203484   -2.827678    0.340823
     21          6           0        1.618297   -4.946531    0.452569
     22          6           0        3.956775   -2.874426    0.770256
     23          6           0        4.633638   -2.694509   -0.625890
     24          6           0        6.123662   -2.911819   -0.692559
     25          8           0        6.809922   -2.078987   -1.375657
     26          8           0        6.617680   -3.928228   -0.090941
     27          6           0       -2.197365   -2.707871   -0.078945
     28          6           0       -3.465669   -3.347054   -0.297117
     29          6           0       -4.405167   -2.410908   -0.506714
     30          6           0       -3.677876   -1.142531   -0.409884
     31          6           0       -3.671541   -4.853894   -0.295479
     32          6           0       -5.832063   -2.673305   -0.785213
     33          6           0       -6.808355   -2.101167    0.223154
     34          6           0       -3.621269    1.294190   -0.518387
     35          6           0       -4.240396    2.596111   -0.708726
     36          6           0       -3.288256    3.538610   -0.486293
     37          6           0       -2.055635    2.802905   -0.169849
     38          6           0       -5.696705    2.895793   -1.082248
     39          6           0       -3.469664    5.042937   -0.547961
     40          6           0       -2.842484    5.885049   -1.395107
     41          6           0        0.386354    2.713422    0.375052
     42          6           0        1.660042    3.373509    0.655674
     43          6           0        2.607608    2.390773    0.825359
     44          6           0        1.879467    1.125740    0.657300
     45          6           0        1.901137    4.875793    0.739793
     46          6           0        4.117161    2.576577    1.126102
     47          6           0        4.984958    2.434626   -0.153966
     48          6           0        6.412742    2.875850    0.060025
     49          8           0        7.126398    2.201502    0.847908
     50          8           0        6.797865    3.911225   -0.551998
     51          7           0        0.430898   -1.455484    0.388917
     52          7           0       -2.311609   -1.338492   -0.131531
     53          7           0       -2.260316    1.413168   -0.204219
     54          7           0        0.507541    1.324862    0.391909
     55         26           0       -0.905896   -0.006929    0.111097
     56          1           0        2.555666    5.086629    1.559574
     57          1           0        2.348351    5.216775   -0.170498
     58          1           0        0.968686    5.378845    0.889371
     59          1           0       -0.762580    4.458982    0.147211
     60          1           0       -1.830834    6.178251   -1.206700
     61          1           0       -3.356719    6.259732   -2.255383
     62          1           0       -4.159569    5.477063    0.145195
     63          1           0       -6.222589    3.242733   -0.217391
     64          1           0       -5.722368    3.649380   -1.841424
     65          1           0       -6.161613    2.004434   -1.448635
     66          1           0       -5.323027    0.125134   -0.814698
     67          1           0       -6.746459   -2.390527    1.251424
     68          1           0       -7.559468   -1.407903   -0.093256
     69          1           0       -6.154410   -3.229437   -1.640613
     70          1           0       -4.108003   -5.153231    0.634466
     71          1           0       -4.323395   -5.125688   -1.099291
     72          1           0       -2.728068   -5.342912   -0.420459
     73          1           0       -1.094785   -4.471299    0.160676
     74          1           0        0.772201   -5.403701   -0.016493
     75          1           0        2.503917   -5.185656   -0.098245
     76          1           0        1.711563   -5.311803    1.453957
     77          1           0        4.170602   -3.377951   -1.306628
     78          1           0        4.430645   -1.699943   -0.964317
     79          1           0        4.111560   -3.874308    1.118361
     80          1           0        4.380717   -2.181771    1.466963
     81          1           0        7.543929   -1.613437   -0.968106
     82          1           0        4.423524    1.838547    1.837687
     83          1           0        4.271326    3.549103    1.544820
     84          1           0        4.982713    1.409510   -0.460611
     85          1           0        4.552821    3.029077   -0.931646
     86          1           0        6.887359    2.136059    1.775366
     87          1           0        3.533863   -0.159071    0.935496
     88          1           0       -0.882000    0.788181   -5.082277
     89          1           0        0.329718   -1.817404   -2.074278
     90          1           0       -1.516151    1.890040   -2.901293
     91          1           0        0.377263   -2.709022   -4.767189
     92          1           0       -0.157515   -1.529531   -5.940168
     93          1           0        1.445687   -1.415271   -5.254781
     94          1           0       -1.593350    2.190318    2.556008
     95          1           0       -2.194918    1.383620    4.877267
     96          1           0       -1.270272   -2.020347    2.661110
     97          1           0       -1.922210   -0.761828    6.292430
     98          1           0       -3.199157   -1.596630    5.440621
     99          1           0       -1.582151   -2.258506    5.457336
 ---------------------------------------------------------------------

 SCF Done:  E(UPBE1PBE) =  -3627.30951117     A.U. after   49 cycles

 Alpha virt. eigenvalues --    1.03874   1.04108   1.04746   1.04929   1.05160
 Alpha virt. eigenvalues --    1.05499   1.05798   1.06016   1.06288   1.06654
 Alpha virt. eigenvalues --    1.06915   1.07167   1.07484   1.07684   1.08112

  Beta  occ. eigenvalues -- -256.50934 -30.25521 -26.08978 -26.08742 -26.07739
  Beta  occ. eigenvalues --  -19.33373 -19.32905 -19.25475 -19.25259 -14.54187
  Beta  occ. eigenvalues --  -14.53833 -14.49059 -14.48895 -14.48658 -14.48420
  Beta  occ. eigenvalues --  -14.48080 -14.47631 -10.42995 -10.42763 -10.37799
  Beta  occ. eigenvalues --  -10.37468 -10.36300 -10.36087 -10.35996 -10.35860
  Beta  occ. eigenvalues --  -10.35379 -10.35342 -10.35145 -10.35071 -10.35004
  Beta  occ. eigenvalues --  -10.34999 -10.33386 -10.33265 -10.33142 -10.33115
  Beta  occ. eigenvalues --  -10.32919 -10.32854 -10.32599 -10.32535 -10.32460
  Beta  occ. eigenvalues --  -10.32432 -10.32215 -10.31954 -10.31910 -10.31859
  Beta  occ. eigenvalues --  -10.31856 -10.31779 -10.31738 -10.31346 -10.31156
  Beta  occ. eigenvalues --  -10.31086 -10.31047 -10.30962 -10.30849 -10.30836
  Beta  occ. eigenvalues --  -10.30282 -10.30197 -10.29732 -10.29192  -3.55948
  Beta  occ. eigenvalues --   -2.32299  -2.31780  -2.27826  -1.23694  -1.22375
  Beta  occ. eigenvalues --   -1.16060  -1.15843  -1.09461  -1.08304  -1.08113
  Beta  occ. eigenvalues --   -1.06918  -1.06753  -1.05692  -1.00475  -1.00049
  Beta  occ. eigenvalues --   -0.93844  -0.92957  -0.92710  -0.92128  -0.91677
  Beta  occ. eigenvalues --   -0.91184  -0.90765  -0.90468  -0.90180  -0.88674
  Beta  occ. eigenvalues --   -0.87963  -0.87235  -0.85668  -0.84546  -0.82634
  Beta  occ. eigenvalues --   -0.81957  -0.81584  -0.81321  -0.81150  -0.79745
  Beta  occ. eigenvalues --   -0.78909  -0.78419  -0.78047  -0.75718  -0.75473
  Beta  occ. eigenvalues --   -0.74320  -0.74224  -0.73884  -0.72476  -0.71767
  Beta  occ. eigenvalues --   -0.71511  -0.70949  -0.70079  -0.68829  -0.67825
  Beta  occ. eigenvalues --   -0.66102  -0.65729  -0.65568  -0.64668  -0.64342
  Beta  occ. eigenvalues --   -0.63163  -0.62106  -0.61701  -0.61513  -0.60905
  Beta  occ. eigenvalues --   -0.59898  -0.58770  -0.58432  -0.58266  -0.57621
  Beta  occ. eigenvalues --   -0.57523  -0.57425  -0.57212  -0.57052  -0.56932
  Beta  occ. eigenvalues --   -0.56589  -0.56345  -0.55956  -0.55206  -0.55117
  Beta  occ. eigenvalues --   -0.54637  -0.54293  -0.54115  -0.54004  -0.53704
  Beta  occ. eigenvalues --   -0.53493  -0.53318  -0.53177  -0.52924  -0.52675
  Beta  occ. eigenvalues --   -0.52368  -0.52189  -0.52004  -0.51892  -0.51808
  Beta  occ. eigenvalues --   -0.51604  -0.51529  -0.51268  -0.51139  -0.50758
  Beta  occ. eigenvalues --   -0.50307  -0.50094  -0.50065  -0.49864  -0.49820
  Beta  occ. eigenvalues --   -0.49535  -0.49234  -0.48969  -0.48888  -0.48641
  Beta  occ. eigenvalues --   -0.48139  -0.48047  -0.47841  -0.47393  -0.47184
  Beta  occ. eigenvalues --   -0.47065  -0.46880  -0.46072  -0.45877  -0.45516
  Beta  occ. eigenvalues --   -0.45243  -0.44178  -0.43696  -0.43259  -0.43005
  Beta  occ. eigenvalues --   -0.42735  -0.42533  -0.42398  -0.41826  -0.40824
  Beta  occ. eigenvalues --   -0.40384  -0.39931  -0.39614  -0.38326  -0.38175
  Beta  occ. eigenvalues --   -0.36154  -0.35242  -0.35196  -0.34923  -0.34769
  Beta  occ. eigenvalues --   -0.34119  -0.33825  -0.33628  -0.33228  -0.31293
  Beta  occ. eigenvalues --   -0.29744  -0.29022
  Beta virt. eigenvalues --   -0.19398  -0.18842  -0.17227  -0.14793  -0.14422
  Beta virt. eigenvalues --   -0.13704  -0.11229  -0.10596  -0.09424  -0.08933
  Beta virt. eigenvalues --   -0.08499  -0.08371  -0.07190  -0.07021  -0.06538

 Mulliken charges and spin densities:
               1          2
     1  C   -0.364292   0.001203
     2  C    0.138697   0.003098
     3  N   -0.209530   0.003629
     4  C   -0.192202   0.001938
     5  C    0.026133   0.005516
     6  N   -0.035789   0.054935
     7  C   -0.361461   0.000879
     8  C    0.097596   0.002082
     9  N   -0.202848   0.003346
    10  C   -0.144530   0.000477
    11  C    0.034492   0.002750
    12  N   -0.118800   0.050489
    13  C   -0.515283  -0.024457
    14  C   -0.546948   0.023996
    15  C   -0.465748   0.029400
    16  C   -0.555590  -0.029022
    17  C    0.359945   0.024396
    18  C   -0.036669   0.001327
    19  C    0.038585   0.027546
    20  C    0.177376  -0.007885
    21  C   -0.445785  -0.001891
    22  C   -0.346712  -0.000877
    23  C   -0.178392   0.000312
    24  C    0.277276   0.000066
    25  O   -0.354553   0.000007
    26  O   -0.357621   0.000004
    27  C    0.295686  -0.017671
    28  C   -0.041365   0.131873
    29  C   -0.051727  -0.105251
    30  C    0.275057   0.025544
    31  C   -0.363368  -0.006519
    32  C   -0.227097   0.945566
    33  C   -0.295849   1.037008
    34  C    0.326386  -0.012345
    35  C   -0.074499   0.106883
    36  C    0.051137  -0.153002
    37  C    0.168099   0.067670
    38  C   -0.382667  -0.005963
    39  C   -0.250539   0.987607
    40  C   -0.280333  -1.060690
    41  C    0.310919   0.031524
    42  C   -0.035516   0.009234
    43  C   -0.036325   0.018482
    44  C    0.290153   0.025951
    45  C   -0.396705  -0.001017
    46  C   -0.375003  -0.002462
    47  C   -0.188657   0.000979
    48  C    0.300817   0.000115
    49  O   -0.337907   0.000018
    50  O   -0.330755   0.000217
    51  N   -0.044058  -0.050833
    52  N    0.061483  -0.047063
    53  N    0.011236  -0.037419
    54  N    0.066207  -0.071127
    55  Fe  -0.165330   2.944464
    56  H    0.145454   0.000313
    57  H    0.164304   0.000728
    58  H    0.132861  -0.000129
    59  H    0.110651   0.002979
    60  H    0.143897   0.094757
    61  H    0.157112   0.093729
    62  H    0.151165  -0.094331
    63  H    0.153125   0.003693
    64  H    0.149182   0.003225
    65  H    0.133809   0.000927
    66  H    0.117918   0.000829
    67  H    0.156035  -0.019554
    68  H    0.152887  -0.016176
    69  H    0.169752  -0.022137
    70  H    0.153030   0.005275
    71  H    0.143317   0.001806
    72  H    0.127050  -0.000389
    73  H    0.111064  -0.001263
    74  H    0.130482   0.000306
    75  H    0.155787   0.000598
    76  H    0.163339   0.002029
    77  H    0.137047  -0.000014
    78  H    0.133163   0.000027
    79  H    0.161569  -0.000038
    80  H    0.131778   0.000038
    81  H    0.362173   0.000009
    82  H    0.126647   0.000399
    83  H    0.143902   0.000022
    84  H    0.117403  -0.000017
    85  H    0.137229  -0.000057
    86  H    0.356739   0.000024
    87  H    0.124822   0.000727
    88  H    0.243230   0.001874
    89  H    0.153046   0.000864
    90  H    0.175427   0.000079
    91  H    0.149833  -0.000019
    92  H    0.135027   0.000103
    93  H    0.156283   0.000015
    94  H    0.185077   0.000777
    95  H    0.244552   0.001853
    96  H    0.163108   0.000857
    97  H    0.135640   0.000121
    98  H    0.154558   0.000088
    99  H    0.152700   0.000017
 Sum of Mulliken charges =   1.00000   5.00000

 Dipole moment (field-independent basis, Debye):
    X=             -9.4123    Y=              1.4166    Z=              2.1381  Tot=              9.7555
 Quadrupole moment (field-independent basis, Debye-Ang):
   XX=           -286.6261   YY=           -287.0204   ZZ=           -243.6402
   XY=             -3.7030   XZ=             12.2448   YZ=             10.1910

 Summary of Natural Population Analysis:

                                       Natural Population
                Natural  -----------------------------------------------
    Atom  No    Charge         Core      Valence    Rydberg      Total
 -----------------------------------------------------------------------
      C    1   -0.32047      0.99969     2.31762    0.00316     3.32047
      C    2    0.06059      0.99955     1.93082    0.00904     2.93941
      N    3   -0.23360      0.99968     2.72397    0.00995     3.73360
      C    4   -0.03448      0.99943     2.02637    0.00868     3.03448
      C    5    0.10249      0.99965     1.88733    0.01052     2.89751
      N    6   -0.15142      0.99972     2.63040    0.02130     3.65142
      C    7   -0.32041      0.99969     2.31757    0.00315     3.32041
      C    8    0.06079      0.99955     1.93074    0.00893     2.93921
      N    9   -0.23364      0.99968     2.72396    0.01001     3.73364
      C   10   -0.03964      0.99943     2.03126    0.00894     3.03964
      C   11    0.09806      0.99966     1.89112    0.01116     2.90194
      N   12   -0.15754      0.99972     2.63788    0.01994     3.65754
      C   13   -0.12407      0.99948     2.11587    0.00872     3.12407
      C   14   -0.10968      0.99946     2.10196    0.00826     3.10968
      C   15   -0.10781      0.99946     2.10008    0.00828     3.10781
      C   16   -0.13989      0.99950     2.13181    0.00858     3.13989
      C   17    0.09088      0.99947     1.89938    0.01028     2.90912
      C   18   -0.00688      0.99941     1.99830    0.00917     3.00688
      C   19    0.00633      0.99950     1.98577    0.00840     2.99367
      C   20    0.07289      0.99951     1.91697    0.01063     2.92711
      C   21   -0.32370      0.99966     2.31655    0.00748     3.32370
      C   22   -0.20493      0.99967     2.19842    0.00685     3.20493
      C   23   -0.25161      0.99961     2.24355    0.00845     3.25161
      C   24    0.38017      0.99974     1.60329    0.01680     2.61983
      O   25   -0.33823      0.99982     3.32475    0.01366     4.33823
      O   26   -0.28818      0.99990     3.27742    0.01086     4.28818
      C   27    0.07163      0.99948     1.91835    0.01054     2.92837
      C   28    0.06063      0.99940     1.93216    0.00781     2.93937
      C   29   -0.08081      0.99937     2.07187    0.00957     3.08081
      C   30    0.12166      0.99951     1.86861    0.01021     2.87834
      C   31   -0.31875      0.99970     2.31327    0.00578     3.31875
      C   32    0.37536      0.99969     1.61805    0.00689     2.62464
      C   33    0.33953      0.99977     1.65722    0.00348     2.66047
      C   34    0.07611      0.99947     1.91362    0.01080     2.92389
      C   35    0.05079      0.99941     1.94190    0.00790     2.94921
      C   36   -0.10609      0.99941     2.09630    0.01038     3.10609
      C   37    0.11893      0.99954     1.87121    0.01032     2.88107
      C   38   -0.32045      0.99969     2.31718    0.00358     3.32045
      C   39    0.34964      0.99960     1.64158    0.00918     2.65036
      C   40   -0.64592      0.99964     2.63460    0.01168     3.64592
      C   41    0.09620      0.99950     1.89380    0.01050     2.90380
      C   42    0.00422      0.99946     1.98841    0.00791     2.99578
      C   43    0.00254      0.99943     1.98880    0.00923     2.99746
      C   44    0.09865      0.99951     1.89163    0.01021     2.90135
      C   45   -0.32024      0.99969     2.31685    0.00370     3.32024
      C   46   -0.21361      0.99966     2.20702    0.00693     3.21361
      C   47   -0.25201      0.99963     2.24385    0.00853     3.25201
      C   48    0.37972      0.99973     1.60323    0.01732     2.62028
      O   49   -0.33766      0.99980     3.32289    0.01497     4.33766
      O   50   -0.27086      0.99990     3.25961    0.01135     4.27086
      N   51   -0.22389      0.99970     2.70302    0.02117     3.72389
      N   52   -0.20786      0.99967     2.68642    0.02177     3.70786
      N   53   -0.21487      0.99970     2.69281    0.02236     3.71487
      N   54   -0.22053      0.99968     2.69858    0.02226     3.72053
     Fe   55    1.64696      8.99471     2.33098    0.02735    11.35304
      H   56    0.11479      0.00000     0.38449    0.00072     0.38521
      H   57    0.11841      0.00000     0.38088    0.00071     0.38159
      H   58    0.11005      0.00000     0.38935    0.00060     0.38995
      H   59    0.11337      0.00000     0.38534    0.00129     0.38663
      H   60    0.13331      0.00000     0.36601    0.00069     0.36669
      H   61    0.13917      0.00000     0.36022    0.00061     0.36083
      H   62    0.06349      0.00000     0.43488    0.00163     0.43651
      H   63    0.11788      0.00000     0.38139    0.00073     0.38212
      H   64    0.11770      0.00000     0.38167    0.00064     0.38230
      H   65    0.11016      0.00000     0.38927    0.00058     0.38984
      H   66    0.11520      0.00000     0.38359    0.00121     0.38480
      H   67    0.09081      0.00000     0.40858    0.00061     0.40919
      H   68    0.08947      0.00000     0.40991    0.00062     0.41053
      H   69    0.10218      0.00000     0.39706    0.00076     0.39782
      H   70    0.11785      0.00000     0.38156    0.00059     0.38215
      H   71    0.11665      0.00000     0.38272    0.00064     0.38335
      H   72    0.10790      0.00000     0.39165    0.00045     0.39210
      H   73    0.11253      0.00000     0.38595    0.00152     0.38747
      H   74    0.11165      0.00000     0.38782    0.00053     0.38835
      H   75    0.11853      0.00000     0.38079    0.00068     0.38147
      H   76    0.12068      0.00000     0.37855    0.00077     0.37932
      H   77    0.12015      0.00000     0.37922    0.00062     0.37985
      H   78    0.10803      0.00000     0.39127    0.00070     0.39197
      H   79    0.12144      0.00000     0.37781    0.00076     0.37856
      H   80    0.10900      0.00000     0.39022    0.00078     0.39100
      H   81    0.26122      0.00000     0.23759    0.00119     0.23878
      H   82    0.10518      0.00000     0.39388    0.00094     0.39482
      H   83    0.11448      0.00000     0.38471    0.00081     0.38552
      H   84    0.10899      0.00000     0.39021    0.00079     0.39101
      H   85    0.12012      0.00000     0.37920    0.00068     0.37988
      H   86    0.25670      0.00000     0.24232    0.00097     0.24330
      H   87    0.10962      0.00000     0.38904    0.00134     0.39038
      H   88    0.21156      0.00000     0.28769    0.00075     0.28844
      H   89    0.11774      0.00000     0.38139    0.00087     0.38226
      H   90    0.11201      0.00000     0.38706    0.00093     0.38799
      H   91    0.11879      0.00000     0.38072    0.00049     0.38121
      H   92    0.11159      0.00000     0.38779    0.00062     0.38841
      H   93    0.11619      0.00000     0.38317    0.00065     0.38381
      H   94    0.11400      0.00000     0.38521    0.00079     0.38600
      H   95    0.21196      0.00000     0.28729    0.00075     0.28804
      H   96    0.11717      0.00000     0.38208    0.00075     0.38283
      H   97    0.11185      0.00000     0.38753    0.00062     0.38815
      H   98    0.11583      0.00000     0.38352    0.00065     0.38417
      H   99    0.11956      0.00000     0.37996    0.00048     0.38044
 =======================================================================
   * Total *    3.00000     62.97310   138.39753    0.62937   202.00000

 Normal termination of Gaussian 16 at Fri Feb 10 22:00:56 2023.
