 Gaussian 16, Revision A.03,
 Gaussian 16:  ES64L-G16RevA.03 25-Dec-2016

 ----------------------------------------------------------------------
 # PBE1PBE/def2TZVP empiricaldispersion=GD3BJ int=(grid=ultrafine) geom
 =check pop=nbo
 ----------------------------------------------------------------------

 ---------
 2gsm_II_Q
 ---------
 Structure from the checkpoint file:  "2gsm_II_Q.chk"
 Charge =  0 Multiplicity = 5

                         Standard orientation:
 ---------------------------------------------------------------------
 Center     Atomic      Atomic             Coordinates (Angstroms)
 Number     Number       Type             X           Y           Z
 ---------------------------------------------------------------------
      1          6           0       -0.484073   -0.887374    5.091567
      2          6           0        0.336697   -0.781941    3.830978
      3          7           0        1.677180   -1.103268    3.790683
      4          6           0        0.016619   -0.359343    2.579353
      5          6           0        2.149586   -0.882227    2.571856
      6          7           0        1.159835   -0.438291    1.812783
      7         26           0        0.974377   -0.010954   -0.243987
      8          6           0       -2.481787   -0.043760   -0.173503
      9          6           0        0.994501   -3.405448   -0.947618
     10          6           0        4.404886    0.063964   -0.693949
     11          6           0        0.944276    3.409136    0.005987
     12          7           0       -0.491197   -1.485253   -0.505078
     13          6           0       -1.855518   -1.242786   -0.494225
     14          6           0       -2.505525   -2.484873   -0.848488
     15          6           0       -1.554242   -3.414153   -1.072982
     16          6           0       -0.257906   -2.805091   -0.849274
     17          6           0       -1.820921   -4.846180   -1.492801
     18          6           0       -4.022502   -2.708520   -0.968752
     19          6           0       -4.598704   -3.129892    0.382473
     20          6           0       -6.111217   -3.098664    0.319178
     21          8           0       -6.743707   -4.108768    0.723992
     22          8           0       -6.702290   -2.073983   -0.132184
     23          7           0        2.466970   -1.440441   -0.779016
     24          6           0        2.244638   -2.794435   -0.913679
     25          6           0        3.555984   -3.425778   -1.011566
     26          6           0        4.495811   -2.467895   -0.949943
     27          6           0        3.820158   -1.180126   -0.795191
     28          6           0        3.826057   -4.935884   -1.161370
     29          7           0        2.413041    1.468102   -0.323802
     30          6           0        3.766960    1.281728   -0.527442
     31          6           0        4.403287    2.580486   -0.525571
     32          6           0        3.454160    3.520970   -0.320641
     33          6           0        2.174004    2.835371   -0.187367
     34          6           0        5.906364    2.814711   -0.744865
     35          6           0        3.658948    5.040420   -0.256812
     36          6           0        4.843300    5.563744    0.062257
     37          7           0       -0.526095    1.433201   -0.082061
     38          6           0       -0.305334    2.790365   -0.039597
     39          6           0       -1.612054    3.435314   -0.023057
     40          6           0       -2.551164    2.480890   -0.069431
     41          6           0       -1.880074    1.193226   -0.109880
     42          6           0       -1.843228    4.962158    0.023728
     43          6           0       -4.071936    2.634934   -0.040395
     44          6           0       -4.737706    3.160893   -1.309317
     45          6           0       -6.178493    3.393272   -0.877250
     46          8           0       -7.002076    2.444447   -0.922654
     47          8           0       -6.490628    4.531843   -0.470296
     48          6           0        6.019037   -2.677899   -1.126936
     49          6           0        6.728159   -2.758400    0.236239
     50          1           0        6.294479   -3.544776    0.817990
     51          1           0        7.768537   -2.958123    0.085830
     52          1           0        6.614579   -1.828280    0.752840
     53          1           0        6.187815   -3.587454   -1.664637
     54          1           0        6.423621   -1.859685   -1.685271
     55          1           0        3.324060   -5.303353   -2.031924
     56          1           0        4.878502   -5.101947   -1.259776
     57          1           0        3.463093   -5.450652   -0.296401
     58          1           0        0.996128   -4.469125   -1.063761
     59          1           0       -2.452105   -4.852916   -2.356781
     60          1           0       -0.894247   -5.328445   -1.724311
     61          1           0       -2.304641   -5.367953   -0.693634
     62          1           0       -4.272028   -4.121755    0.615690
     63          1           0       -4.259591   -2.455317    1.140663
     64          1           0       -4.211732   -3.476047   -1.689858
     65          1           0       -4.490775   -1.800340   -1.286290
     66          1           0       -7.596229   -4.326849    0.340264
     67          1           0       -3.528570   -0.086021    0.044119
     68          1           0       -4.495189    1.677274    0.180163
     69          1           0       -4.319768    3.299680    0.760599
     70          1           0       -2.891842    5.162046    0.096901
     71          1           0       -1.341589    5.372925    0.874921
     72          1           0       -1.456359    5.408961   -0.868236
     73          1           0       -4.691030    2.430941   -2.090274
     74          1           0       -4.284407    4.078784   -1.620599
     75          1           0       -7.805832    2.530871   -1.440444
     76          1           0        0.942477    4.458047    0.217368
     77          1           0        6.057443    3.307863   -1.682350
     78          1           0        6.291245    3.424996    0.045274
     79          1           0        6.416828    1.874340   -0.750190
     80          1           0        5.473028    0.091954   -0.750431
     81          1           0        4.735285    6.615044    0.229594
     82          1           0        5.211484    5.096958    0.951893
     83          1           0        5.533419    5.399129   -0.738704
     84          1           0        3.394489    5.430924   -1.217264
     85          1           0        2.950129    5.420830    0.448712
     86          1           0       -1.310842   -1.545823    4.924835
     87          1           0        0.124904   -1.272708    5.882493
     88          1           0       -0.848684    0.081594    5.361861
     89          1           0        2.210813   -1.449724    4.562178
     90          1           0        3.159930   -1.036518    2.255155
     91          1           0       -0.945443   -0.026664    2.249715
 ---------------------------------------------------------------------

 SCF Done:  E(UPBE1PBE) =  -3364.78398383     A.U. after   62 cycles

 Alpha virt. eigenvalues --    0.65623   0.65855   0.66040   0.66496   0.66706
 Alpha virt. eigenvalues --    0.67120   0.67385   0.67504   0.68059   0.68311
 Alpha virt. eigenvalues --    0.68660   0.68938   0.69068   0.69382   0.69539

  Beta  occ. eigenvalues -- -256.30210 -30.02655 -25.87004 -25.85331 -25.85294
  Beta  occ. eigenvalues --  -19.26892 -19.24832 -19.17705 -19.17056 -14.45606
  Beta  occ. eigenvalues --  -14.38980 -14.35282 -14.35227 -14.35209 -14.35121
  Beta  occ. eigenvalues --  -10.35509 -10.34407 -10.28911 -10.26844 -10.24174
  Beta  occ. eigenvalues --  -10.24136 -10.24131 -10.24089 -10.24066 -10.24027
  Beta  occ. eigenvalues --  -10.24027 -10.23987 -10.23881 -10.23656 -10.23206
  Beta  occ. eigenvalues --  -10.22262 -10.22135 -10.22002 -10.21822 -10.21774
  Beta  occ. eigenvalues --  -10.21614 -10.21570 -10.21519 -10.21442 -10.21424
  Beta  occ. eigenvalues --  -10.21416 -10.21323 -10.21298 -10.21220 -10.21191
  Beta  occ. eigenvalues --  -10.21144 -10.20925 -10.20865 -10.20646 -10.20493
  Beta  occ. eigenvalues --  -10.20260 -10.19800 -10.18406  -3.33866  -2.09627
  Beta  occ. eigenvalues --   -2.08235  -2.08187  -1.16942  -1.15572  -1.07032
  Beta  occ. eigenvalues --   -1.01708  -1.01698  -0.96281  -0.95552  -0.95197
  Beta  occ. eigenvalues --   -0.94432  -0.91365  -0.84572  -0.83372  -0.83008
  Beta  occ. eigenvalues --   -0.82393  -0.81890  -0.81594  -0.80461  -0.79867
  Beta  occ. eigenvalues --   -0.78729  -0.78129  -0.77709  -0.76703  -0.74947
  Beta  occ. eigenvalues --   -0.73747  -0.73287  -0.72349  -0.71376  -0.70700
  Beta  occ. eigenvalues --   -0.69718  -0.68694  -0.68418  -0.65707  -0.65464
  Beta  occ. eigenvalues --   -0.65396  -0.64525  -0.64092  -0.63496  -0.62834
  Beta  occ. eigenvalues --   -0.62297  -0.58735  -0.57330  -0.57190  -0.55300
  Beta  occ. eigenvalues --   -0.54427  -0.54143  -0.52983  -0.52413  -0.51670
  Beta  occ. eigenvalues --   -0.51452  -0.51067  -0.50531  -0.50476  -0.49860
  Beta  occ. eigenvalues --   -0.49623  -0.49172  -0.48604  -0.48508  -0.48462
  Beta  occ. eigenvalues --   -0.48289  -0.47791  -0.47417  -0.46225  -0.45683
  Beta  occ. eigenvalues --   -0.45072  -0.44738  -0.44632  -0.44344  -0.44148
  Beta  occ. eigenvalues --   -0.43999  -0.43849  -0.43806  -0.43509  -0.43268
  Beta  occ. eigenvalues --   -0.43007  -0.42926  -0.42664  -0.42349  -0.42165
  Beta  occ. eigenvalues --   -0.42004  -0.40977  -0.40883  -0.40586  -0.40548
  Beta  occ. eigenvalues --   -0.40254  -0.39864  -0.39635  -0.39313  -0.38927
  Beta  occ. eigenvalues --   -0.38750  -0.38432  -0.38276  -0.37832  -0.37606
  Beta  occ. eigenvalues --   -0.37197  -0.36689  -0.36590  -0.36375  -0.35818
  Beta  occ. eigenvalues --   -0.35549  -0.35302  -0.35021  -0.34714  -0.34115
  Beta  occ. eigenvalues --   -0.33777  -0.33335  -0.32312  -0.32191  -0.32077
  Beta  occ. eigenvalues --   -0.32017  -0.31886  -0.31538  -0.28909  -0.28473
  Beta  occ. eigenvalues --   -0.28357  -0.27951  -0.27328  -0.27273  -0.26737
  Beta  occ. eigenvalues --   -0.25102  -0.23815  -0.23231  -0.22941  -0.22546
  Beta  occ. eigenvalues --   -0.18907  -0.18200  -0.15766
  Beta virt. eigenvalues --   -0.07158  -0.07033  -0.00727  -0.00243   0.00128
  Beta virt. eigenvalues --    0.00513   0.01638   0.02252   0.02807   0.02966
  Beta virt. eigenvalues --    0.03051   0.03733   0.04382   0.04571   0.04943

 Mulliken charges and spin densities:
               1          2
     1  C   -0.354502   0.000920
     2  C    0.110348  -0.000549
     3  N   -0.217814   0.003351
     4  C   -0.146919   0.007479
     5  C    0.029328   0.012456
     6  N   -0.105907   0.014254
     7  Fe   0.232597   3.852292
     8  C   -0.553418  -0.006936
     9  C   -0.534533  -0.009532
    10  C   -0.534371  -0.012656
    11  C   -0.468758  -0.011379
    12  N   -0.148415  -0.009501
    13  C    0.250386   0.013029
    14  C    0.023766   0.004989
    15  C   -0.080400   0.007815
    16  C    0.338196   0.013948
    17  C   -0.399216  -0.000026
    18  C   -0.310507  -0.000484
    19  C   -0.162305   0.000224
    20  C    0.271888   0.000113
    21  O   -0.329805  -0.000002
    22  O   -0.395248   0.000061
    23  N   -0.174306  -0.005473
    24  C    0.248945   0.014260
    25  C   -0.065094   0.007038
    26  C    0.005678   0.005072
    27  C    0.213013   0.017302
    28  C   -0.390029  -0.000332
    29  N   -0.140865  -0.010290
    30  C    0.321042   0.017572
    31  C   -0.039347   0.008025
    32  C   -0.082913   0.006774
    33  C    0.295981   0.017039
    34  C   -0.404753  -0.000041
    35  C   -0.170999  -0.000391
    36  C   -0.383240   0.000135
    37  N   -0.169954  -0.008037
    38  C    0.270709   0.016531
    39  C   -0.087060   0.005128
    40  C    0.096433   0.007647
    41  C    0.280655   0.016091
    42  C   -0.415932  -0.000000
    43  C   -0.491699  -0.000751
    44  C   -0.104073   0.000433
    45  C    0.256384   0.000075
    46  O   -0.336956   0.000015
    47  O   -0.360701   0.000082
    48  C   -0.255430  -0.000265
    49  C   -0.360922   0.000183
    50  H    0.119064   0.000012
    51  H    0.119086   0.000050
    52  H    0.118171  -0.000013
    53  H    0.112941   0.000284
    54  H    0.112499   0.000070
    55  H    0.135646   0.000251
    56  H    0.118166   0.000295
    57  H    0.132723   0.000248
    58  H    0.112915  -0.000045
    59  H    0.136234   0.000441
    60  H    0.124063  -0.000014
    61  H    0.129110   0.000215
    62  H    0.115099  -0.000009
    63  H    0.136240   0.000012
    64  H    0.117109   0.000238
    65  H    0.150510   0.000120
    66  H    0.346843   0.000025
    67  H    0.145757  -0.000149
    68  H    0.135154   0.000018
    69  H    0.147243   0.000309
    70  H    0.149862   0.000208
    71  H    0.131481   0.000158
    72  H    0.142146   0.000208
    73  H    0.110092   0.000030
    74  H    0.128632  -0.000032
    75  H    0.354558  -0.000004
    76  H    0.118772   0.000033
    77  H    0.144830   0.000393
    78  H    0.144197   0.000224
    79  H    0.120050  -0.000004
    80  H    0.096127   0.000029
    81  H    0.121225   0.000150
    82  H    0.111265   0.000019
    83  H    0.122542  -0.000017
    84  H    0.104941   0.000346
    85  H    0.092761   0.000096
    86  H    0.148896  -0.000035
    87  H    0.115460   0.000076
    88  H    0.151297  -0.000054
    89  H    0.229780   0.001664
    90  H    0.169961   0.000068
    91  H    0.157592   0.000399
 Sum of Mulliken charges =  -0.00000   4.00000

 Dipole moment (field-independent basis, Debye):
    X=              2.2785    Y=             -5.5728    Z=              4.3714  Tot=              7.4402
 Quadrupole moment (field-independent basis, Debye-Ang):
   XX=           -274.7194   YY=           -281.2318   ZZ=           -265.9986
   XY=             30.6260   XZ=             19.2612   YZ=             -9.7559

 Summary of Natural Population Analysis:

                                       Natural Population
                Natural  -----------------------------------------------
    Atom  No    Charge         Core      Valence    Rydberg      Total
 -----------------------------------------------------------------------
      C    1   -0.31899      0.99970     2.31611    0.00318     3.31899
      C    2    0.04911      0.99955     1.94184    0.00950     2.95089
      N    3   -0.23845      0.99968     2.72859    0.01018     3.73845
      C    4   -0.03135      0.99946     2.02289    0.00900     3.03135
      C    5    0.10120      0.99969     1.88899    0.01012     2.89880
      N    6   -0.20224      0.99973     2.68411    0.01840     3.70224
     Fe    7    2.28142      8.99557     1.70720    0.01581    10.71858
      C    8   -0.12588      0.99948     2.11787    0.00853     3.12588
      C    9   -0.11633      0.99950     2.10871    0.00812     3.11633
      C   10   -0.12619      0.99948     2.11822    0.00849     3.12619
      C   11   -0.12078      0.99948     2.11316    0.00814     3.12078
      N   12   -0.23605      0.99972     2.71776    0.01857     3.73605
      C   13    0.07825      0.99954     1.91223    0.00998     2.92175
      C   14   -0.01732      0.99939     2.00830    0.00962     3.01732
      C   15   -0.01144      0.99941     2.00324    0.00879     3.01144
      C   16    0.07822      0.99955     1.91180    0.01043     2.92178
      C   17   -0.31874      0.99970     2.31529    0.00375     3.31874
      C   18   -0.20724      0.99967     2.20103    0.00654     3.20724
      C   19   -0.24825      0.99963     2.24021    0.00841     3.24825
      C   20    0.38290      0.99977     1.59948    0.01785     2.61710
      O   21   -0.32607      0.99981     3.31293    0.01333     4.32607
      O   22   -0.31153      0.99990     3.30002    0.01160     4.31153
      N   23   -0.23310      0.99972     2.71441    0.01898     3.73310
      C   24    0.07711      0.99956     1.91301    0.01032     2.92289
      C   25   -0.01192      0.99938     2.00372    0.00882     3.01192
      C   26   -0.01545      0.99939     2.00601    0.01005     3.01545
      C   27    0.07711      0.99954     1.91292    0.01043     2.92289
      C   28   -0.31859      0.99970     2.31531    0.00359     3.31859
      N   29   -0.23732      0.99972     2.71925    0.01835     3.73732
      C   30    0.08212      0.99954     1.90786    0.01048     2.91788
      C   31   -0.01298      0.99941     2.00492    0.00866     3.01298
      C   32   -0.00823      0.99940     1.99952    0.00930     3.00823
      C   33    0.08464      0.99954     1.90603    0.00979     2.91536
      C   34   -0.31832      0.99970     2.31479    0.00382     3.31832
      C   35   -0.21032      0.99955     2.20247    0.00830     3.21032
      C   36   -0.29416      0.99959     2.28646    0.00811     3.29416
      N   37   -0.23806      0.99971     2.71976    0.01859     3.73806
      C   38    0.08484      0.99956     1.90555    0.01004     2.91516
      C   39   -0.00822      0.99938     2.00034    0.00850     3.00822
      C   40   -0.01650      0.99938     2.00745    0.00966     3.01650
      C   41    0.07781      0.99954     1.91239    0.01026     2.92219
      C   42   -0.32042      0.99970     2.31712    0.00360     3.32042
      C   43   -0.20921      0.99965     2.20313    0.00643     3.20921
      C   44   -0.24577      0.99963     2.23758    0.00856     3.24577
      C   45    0.38637      0.99977     1.59496    0.01889     2.61363
      O   46   -0.33987      0.99980     3.32577    0.01429     4.33987
      O   47   -0.29691      0.99989     3.28497    0.01204     4.29691
      C   48   -0.20860      0.99969     2.20218    0.00673     3.20860
      C   49   -0.29871      0.99972     2.29614    0.00284     3.29871
      H   50    0.10188      0.00000     0.39741    0.00071     0.39812
      H   51    0.10201      0.00000     0.39730    0.00069     0.39799
      H   52    0.10160      0.00000     0.39765    0.00075     0.39840
      H   53    0.10434      0.00000     0.39475    0.00091     0.39566
      H   54    0.10581      0.00000     0.39342    0.00078     0.39419
      H   55    0.10953      0.00000     0.38969    0.00078     0.39047
      H   56    0.10701      0.00000     0.39212    0.00087     0.39299
      H   57    0.10887      0.00000     0.39039    0.00074     0.39113
      H   58    0.10591      0.00000     0.39287    0.00122     0.39409
      H   59    0.10978      0.00000     0.38941    0.00081     0.39022
      H   60    0.10887      0.00000     0.39052    0.00061     0.39113
      H   61    0.10738      0.00000     0.39171    0.00091     0.39262
      H   62    0.10905      0.00000     0.39016    0.00079     0.39095
      H   63    0.11972      0.00000     0.37963    0.00065     0.38028
      H   64    0.10539      0.00000     0.39348    0.00114     0.39461
      H   65    0.12000      0.00000     0.37913    0.00087     0.38000
      H   66    0.25543      0.00000     0.24306    0.00151     0.24457
      H   67    0.10975      0.00000     0.38913    0.00113     0.39025
      H   68    0.10826      0.00000     0.39084    0.00090     0.39174
      H   69    0.11176      0.00000     0.38710    0.00114     0.38824
      H   70    0.11157      0.00000     0.38767    0.00076     0.38843
      H   71    0.10917      0.00000     0.39011    0.00072     0.39083
      H   72    0.11070      0.00000     0.38856    0.00074     0.38930
      H   73    0.10968      0.00000     0.38957    0.00076     0.39032
      H   74    0.11725      0.00000     0.38208    0.00067     0.38275
      H   75    0.25947      0.00000     0.23930    0.00123     0.24053
      H   76    0.10839      0.00000     0.39044    0.00117     0.39161
      H   77    0.10927      0.00000     0.38992    0.00081     0.39073
      H   78    0.11106      0.00000     0.38812    0.00082     0.38894
      H   79    0.10569      0.00000     0.39371    0.00060     0.39431
      H   80    0.10537      0.00000     0.39310    0.00154     0.39463
      H   81    0.10655      0.00000     0.39278    0.00066     0.39345
      H   82    0.09944      0.00000     0.39967    0.00089     0.40056
      H   83    0.10064      0.00000     0.39857    0.00080     0.39936
      H   84    0.10389      0.00000     0.39485    0.00127     0.39611
      H   85    0.10107      0.00000     0.39790    0.00103     0.39893
      H   86    0.11576      0.00000     0.38365    0.00059     0.38424
      H   87    0.10678      0.00000     0.39263    0.00059     0.39322
      H   88    0.11615      0.00000     0.38325    0.00060     0.38385
      H   89    0.20721      0.00000     0.29197    0.00083     0.29279
      H   90    0.11169      0.00000     0.38734    0.00097     0.38831
      H   91    0.11921      0.00000     0.37999    0.00080     0.38079
 =======================================================================
   * Total *    2.00000     56.97658   125.48889    0.53454   183.00000

 Normal termination of Gaussian 16 at Fri Jan 20 10:44:02 2023.
