 Gaussian 16, Revision A.03,

 ---------------------------------------------------------------------
 # polar def2tzvp empiricaldispersion=gd3bj int=grid=ultrafine pbe1pbe
 ---------------------------------------------------------------------

 ---------
 2gsm_II_S
 ---------
 Symbolic Z-matrix:
 Charge =  0 Multiplicity = 1

 SCF Done:  E(RPBE1PBE) =  -3364.75085353     A.U. after   24 cycles

  Exact polarizability: 801.066   5.222 715.015 -17.293  30.830 345.414
 Approx polarizability:1340.649   0.8601298.239 -41.420  86.711 553.467

 Normal termination of Gaussian 16 at Sun Jan 15 12:38:11 2023.
 Gaussian 16:  ES64L-G16RevA.03 25-Dec-2016

 ----------------------------------------------------------------------
 # PBE1PBE/def2TZVP empiricaldispersion=GD3BJ int=(grid=ultrafine) geom
 =check guess=read pop=nbo scf=qc
 ----------------------------------------------------------------------

 -------------
 2gsm_II_S_nbo
 -------------
 Structure from the checkpoint file:  "2gsm_II_S.chk"
 Charge =  0 Multiplicity = 1

                         Standard orientation:
 ---------------------------------------------------------------------
 Center     Atomic      Atomic             Coordinates (Angstroms)
 Number     Number       Type             X           Y           Z
 ---------------------------------------------------------------------
      1          6           0       -0.484073   -0.887374    5.091567
      2          6           0        0.336697   -0.781941    3.830978
      3          7           0        1.677180   -1.103268    3.790683
      4          6           0        0.016619   -0.359343    2.579353
      5          6           0        2.149586   -0.882227    2.571856
      6          7           0        1.159835   -0.438291    1.812783
      7         26           0        0.974377   -0.010954   -0.243987
      8          6           0       -2.481787   -0.043760   -0.173503
      9          6           0        0.994501   -3.405448   -0.947618
     10          6           0        4.404886    0.063964   -0.693949
     11          6           0        0.944276    3.409136    0.005987
     12          7           0       -0.491197   -1.485253   -0.505078
     13          6           0       -1.855518   -1.242786   -0.494225
     14          6           0       -2.505525   -2.484873   -0.848488
     15          6           0       -1.554242   -3.414153   -1.072982
     16          6           0       -0.257906   -2.805091   -0.849274
     17          6           0       -1.820921   -4.846180   -1.492801
     18          6           0       -4.022502   -2.708520   -0.968752
     19          6           0       -4.598704   -3.129892    0.382473
     20          6           0       -6.111217   -3.098664    0.319178
     21          8           0       -6.743707   -4.108768    0.723992
     22          8           0       -6.702290   -2.073983   -0.132184
     23          7           0        2.466970   -1.440441   -0.779016
     24          6           0        2.244638   -2.794435   -0.913679
     25          6           0        3.555984   -3.425778   -1.011566
     26          6           0        4.495811   -2.467895   -0.949943
     27          6           0        3.820158   -1.180126   -0.795191
     28          6           0        3.826057   -4.935884   -1.161370
     29          7           0        2.413041    1.468102   -0.323802
     30          6           0        3.766960    1.281728   -0.527442
     31          6           0        4.403287    2.580486   -0.525571
     32          6           0        3.454160    3.520970   -0.320641
     33          6           0        2.174004    2.835371   -0.187367
     34          6           0        5.906364    2.814711   -0.744865
     35          6           0        3.658948    5.040420   -0.256812
     36          6           0        4.843300    5.563744    0.062257
     37          7           0       -0.526095    1.433201   -0.082061
     38          6           0       -0.305334    2.790365   -0.039597
     39          6           0       -1.612054    3.435314   -0.023057
     40          6           0       -2.551164    2.480890   -0.069431
     41          6           0       -1.880074    1.193226   -0.109880
     42          6           0       -1.843228    4.962158    0.023728
     43          6           0       -4.071936    2.634934   -0.040395
     44          6           0       -4.737706    3.160893   -1.309317
     45          6           0       -6.178493    3.393272   -0.877250
     46          8           0       -7.002076    2.444447   -0.922654
     47          8           0       -6.490628    4.531843   -0.470296
     48          6           0        6.019037   -2.677899   -1.126936
     49          6           0        6.728159   -2.758400    0.236239
     50          1           0        6.294479   -3.544776    0.817990
     51          1           0        7.768537   -2.958123    0.085830
     52          1           0        6.614579   -1.828280    0.752840
     53          1           0        6.187815   -3.587454   -1.664637
     54          1           0        6.423621   -1.859685   -1.685271
     55          1           0        3.324060   -5.303353   -2.031924
     56          1           0        4.878502   -5.101947   -1.259776
     57          1           0        3.463093   -5.450652   -0.296401
     58          1           0        0.996128   -4.469125   -1.063761
     59          1           0       -2.452105   -4.852916   -2.356781
     60          1           0       -0.894247   -5.328445   -1.724311
     61          1           0       -2.304641   -5.367953   -0.693634
     62          1           0       -4.272028   -4.121755    0.615690
     63          1           0       -4.259591   -2.455317    1.140663
     64          1           0       -4.211732   -3.476047   -1.689858
     65          1           0       -4.490775   -1.800340   -1.286290
     66          1           0       -7.596229   -4.326849    0.340264
     67          1           0       -3.528570   -0.086021    0.044119
     68          1           0       -4.495189    1.677274    0.180163
     69          1           0       -4.319768    3.299680    0.760599
     70          1           0       -2.891842    5.162046    0.096901
     71          1           0       -1.341589    5.372925    0.874921
     72          1           0       -1.456359    5.408961   -0.868236
     73          1           0       -4.691030    2.430941   -2.090274
     74          1           0       -4.284407    4.078784   -1.620599
     75          1           0       -7.805832    2.530871   -1.440444
     76          1           0        0.942477    4.458047    0.217368
     77          1           0        6.057443    3.307863   -1.682350
     78          1           0        6.291245    3.424996    0.045274
     79          1           0        6.416828    1.874340   -0.750190
     80          1           0        5.473028    0.091954   -0.750431
     81          1           0        4.735285    6.615044    0.229594
     82          1           0        5.211484    5.096958    0.951893
     83          1           0        5.533419    5.399129   -0.738704
     84          1           0        3.394489    5.430924   -1.217264
     85          1           0        2.950129    5.420830    0.448712
     86          1           0       -1.310842   -1.545823    4.924835
     87          1           0        0.124904   -1.272708    5.882493
     88          1           0       -0.848684    0.081594    5.361861
     89          1           0        2.210813   -1.449724    4.562178
     90          1           0        3.159930   -1.036518    2.255155
     91          1           0       -0.945443   -0.026664    2.249715
 ---------------------------------------------------------------------

 SCF Done:  E(RPBE1PBE) =  -3364.75085353     a.u. after    1 cycles

 The electronic state is 1-A.
 Alpha  occ. eigenvalues -- -256.31628 -30.08019 -25.90885 -25.90518 -25.90484
 Alpha  occ. eigenvalues --  -19.26898 -19.24842 -19.17714 -19.17068 -14.45379
 Alpha  occ. eigenvalues --  -14.39915 -14.36672 -14.36622 -14.36581 -14.36477
 Alpha  occ. eigenvalues --  -10.35516 -10.34417 -10.28640 -10.26665 -10.24291
 Alpha  occ. eigenvalues --  -10.24247 -10.24197 -10.24187 -10.24172 -10.24104
 Alpha  occ. eigenvalues --  -10.24099 -10.23994 -10.23805 -10.23550 -10.23209
 Alpha  occ. eigenvalues --  -10.22300 -10.22142 -10.22030 -10.21884 -10.21872
 Alpha  occ. eigenvalues --  -10.21696 -10.21667 -10.21541 -10.21528 -10.21437
 Alpha  occ. eigenvalues --  -10.21433 -10.21412 -10.21372 -10.21218 -10.21187
 Alpha  occ. eigenvalues --  -10.21155 -10.20979 -10.20906 -10.20673 -10.20525
 Alpha  occ. eigenvalues --  -10.20273 -10.19824 -10.18416  -3.42976  -2.19121
 Alpha  occ. eigenvalues --   -2.18183  -2.18120  -1.16948  -1.15583  -1.06914
 Alpha  occ. eigenvalues --   -1.01716  -1.01709  -0.96648  -0.95929  -0.95568
 Alpha  occ. eigenvalues --   -0.94820  -0.91283  -0.84615  -0.83437  -0.83070
 Alpha  occ. eigenvalues --   -0.82486  -0.81747  -0.81693  -0.80560  -0.79987
 Alpha  occ. eigenvalues --   -0.78818  -0.78226  -0.77816  -0.76781  -0.75070
 Alpha  occ. eigenvalues --   -0.73822  -0.73157  -0.72396  -0.71439  -0.70796
 Alpha  occ. eigenvalues --   -0.69796  -0.68822  -0.68469  -0.65803  -0.65541
 Alpha  occ. eigenvalues --   -0.65239  -0.64574  -0.64167  -0.63569  -0.62655
 Alpha  occ. eigenvalues --   -0.62355  -0.58817  -0.57557  -0.57033  -0.55393
 Alpha  occ. eigenvalues --   -0.54538  -0.54258  -0.53064  -0.52546  -0.51811
 Alpha  occ. eigenvalues --   -0.51601  -0.51136  -0.50605  -0.50505  -0.49892
 Alpha  occ. eigenvalues --   -0.49675  -0.49191  -0.48686  -0.48436  -0.48380
 Alpha  occ. eigenvalues --   -0.48213  -0.47873  -0.47499  -0.46307  -0.45744
 Alpha  occ. eigenvalues --   -0.45101  -0.44783  -0.44644  -0.44414  -0.44210
 Alpha  occ. eigenvalues --   -0.43943  -0.43859  -0.43713  -0.43590  -0.43328
 Alpha  occ. eigenvalues --   -0.43076  -0.42842  -0.42723  -0.42424  -0.42226
 Alpha  occ. eigenvalues --   -0.42077  -0.41062  -0.40979  -0.40666  -0.40619
 Alpha  occ. eigenvalues --   -0.40379  -0.40026  -0.39764  -0.39416  -0.39053
 Alpha  occ. eigenvalues --   -0.38880  -0.38547  -0.38369  -0.37904  -0.37758
 Alpha  occ. eigenvalues --   -0.37254  -0.36876  -0.36683  -0.36461  -0.35881
 Alpha  occ. eigenvalues --   -0.35615  -0.35422  -0.35086  -0.34782  -0.34184
 Alpha  occ. eigenvalues --   -0.33857  -0.33388  -0.32563  -0.32240  -0.32133
 Alpha  occ. eigenvalues --   -0.32049  -0.31934  -0.31639  -0.29917  -0.29144
 Alpha  occ. eigenvalues --   -0.29002  -0.27996  -0.27458  -0.27443  -0.26770
 Alpha  occ. eigenvalues --   -0.25091  -0.24628  -0.24140  -0.23988  -0.22816
 Alpha  occ. eigenvalues --   -0.20671  -0.19670  -0.19267  -0.19131  -0.18385
 Alpha virt. eigenvalues --   -0.06765  -0.06561  -0.01562  -0.00768  -0.00225
 Alpha virt. eigenvalues --    0.00111   0.01960   0.02254   0.02966   0.03651
 Alpha virt. eigenvalues --    0.03809   0.04165   0.04350   0.04679   0.04948

 Mulliken charges:
               1
     1  C   -0.354495
     2  C    0.113366
     3  N   -0.220068
     4  C   -0.152682
     5  C    0.024520
     6  N   -0.047392
     7  Fe   0.046757
     8  C   -0.548000
     9  C   -0.529777
    10  C   -0.530003
    11  C   -0.462287
    12  N   -0.100598
    13  C    0.241154
    14  C    0.022018
    15  C   -0.080725
    16  C    0.330230
    17  C   -0.399628
    18  C   -0.311356
    19  C   -0.162006
    20  C    0.271898
    21  O   -0.329745
    22  O   -0.395313
    23  N   -0.134051
    24  C    0.243078
    25  C   -0.064636
    26  C    0.004436
    27  C    0.208591
    28  C   -0.390360
    29  N   -0.090737
    30  C    0.313299
    31  C   -0.040917
    32  C   -0.083815
    33  C    0.287427
    34  C   -0.405041
    35  C   -0.170676
    36  C   -0.383751
    37  N   -0.124642
    38  C    0.261771
    39  C   -0.087526
    40  C    0.095440
    41  C    0.273545
    42  C   -0.416104
    43  C   -0.492131
    44  C   -0.104060
    45  C    0.256433
    46  O   -0.336971
    47  O   -0.360639
    48  C   -0.256094
    49  C   -0.360369
    50  H    0.119214
    51  H    0.119085
    52  H    0.118387
    53  H    0.113248
    54  H    0.112328
    55  H    0.135515
    56  H    0.118552
    57  H    0.133112
    58  H    0.113656
    59  H    0.136476
    60  H    0.123866
    61  H    0.129536
    62  H    0.115142
    63  H    0.136682
    64  H    0.117430
    65  H    0.150389
    66  H    0.346833
    67  H    0.146475
    68  H    0.135071
    69  H    0.147728
    70  H    0.150152
    71  H    0.131542
    72  H    0.142019
    73  H    0.109991
    74  H    0.128666
    75  H    0.354572
    76  H    0.119518
    77  H    0.144852
    78  H    0.144583
    79  H    0.119915
    80  H    0.096780
    81  H    0.121436
    82  H    0.111569
    83  H    0.122533
    84  H    0.104644
    85  H    0.092677
    86  H    0.148367
    87  H    0.115101
    88  H    0.150840
    89  H    0.230184
    90  H    0.168639
    91  H    0.155326
 Sum of Mulliken charges =  -0.00000

 Dipole moment (field-independent basis, Debye):
    X=              2.2769    Y=             -5.5749    Z=              4.1320  Tot=              7.3032
 Quadrupole moment (field-independent basis, Debye-Ang):
   XX=           -273.8901   YY=           -280.4385   ZZ=           -266.0127
   XY=             30.5361   XZ=             18.9667   YZ=             -9.5775

 Summary of Natural Population Analysis:

                                       Natural Population
                Natural  -----------------------------------------------
    Atom  No    Charge         Core      Valence    Rydberg      Total
 -----------------------------------------------------------------------
      C    1   -0.63813      1.99939     4.63235    0.00639     6.63813
      C    2    0.09770      1.99911     3.88410    0.01909     5.90230
      N    3   -0.48251      1.99937     5.46253    0.02061     7.48251
      C    4   -0.07087      1.99891     4.05348    0.01849     6.07087
      C    5    0.18096      1.99938     3.79919    0.02047     5.81904
      N    6   -0.37349      1.99939     5.32887    0.04523     7.37349
     Fe    7    0.60439     17.99192     7.37765    0.02604    25.39561
      C    8   -0.24674      1.99896     4.23061    0.01717     6.24674
      C    9   -0.22720      1.99900     4.21201    0.01618     6.22720
      C   10   -0.24375      1.99896     4.22792    0.01687     6.24375
      C   11   -0.23263      1.99897     4.21740    0.01626     6.23263
      N   12   -0.43953      1.99939     5.39613    0.04401     7.43953
      C   13    0.14015      1.99907     3.84080    0.01999     5.85985
      C   14   -0.04158      1.99879     4.02350    0.01929     6.04158
      C   15   -0.02989      1.99882     4.01355    0.01752     6.02989
      C   16    0.14078      1.99909     3.83936    0.02077     5.85922
      C   17   -0.63693      1.99940     4.62999    0.00753     6.63693
      C   18   -0.41552      1.99934     4.40199    0.01418     6.41552
      C   19   -0.49705      1.99925     4.48080    0.01700     6.49705
      C   20    0.76572      1.99954     3.19904    0.03570     5.23428
      O   21   -0.65210      1.99963     6.62580    0.02667     8.65210
      O   22   -0.62320      1.99980     6.60018    0.02323     8.62320
      N   23   -0.43835      1.99938     5.39454    0.04444     7.43835
      C   24    0.13951      1.99910     3.84084    0.02054     5.86049
      C   25   -0.03042      1.99877     4.01409    0.01756     6.03042
      C   26   -0.03606      1.99877     4.01727    0.02003     6.03606
      C   27    0.13789      1.99908     3.84236    0.02068     5.86211
      C   28   -0.63646      1.99940     4.62990    0.00716     6.63646
      N   29   -0.43698      1.99939     5.39317    0.04442     7.43698
      C   30    0.14581      1.99906     3.83419    0.02094     5.85419
      C   31   -0.03445      1.99882     4.01836    0.01727     6.03445
      C   32   -0.02439      1.99881     4.00706    0.01852     6.02439
      C   33    0.14950      1.99906     3.83185    0.01959     5.85050
      C   34   -0.63590      1.99940     4.62884    0.00766     6.63590
      C   35   -0.41974      1.99910     4.40406    0.01659     6.41974
      C   36   -0.58853      1.99917     4.57311    0.01625     6.58853
      N   37   -0.44504      1.99937     5.40165    0.04402     7.44504
      C   38    0.14860      1.99912     3.83205    0.02023     5.85140
      C   39   -0.02060      1.99876     4.00536    0.01649     6.02060
      C   40   -0.04223      1.99877     4.02409    0.01937     6.04223
      C   41    0.13981      1.99907     3.84054    0.02058     5.86019
      C   42   -0.64026      1.99940     4.63360    0.00726     6.64026
      C   43   -0.41770      1.99930     4.40548    0.01291     6.41770
      C   44   -0.49197      1.99927     4.47554    0.01715     6.49197
      C   45    0.77265      1.99955     3.19001    0.03780     5.22735
      O   46   -0.67977      1.99960     6.65158    0.02859     8.67977
      O   47   -0.59383      1.99978     6.56996    0.02410     8.59383
      C   48   -0.41669      1.99939     4.40387    0.01344     6.41669
      C   49   -0.59767      1.99945     4.59253    0.00570     6.59767
      H   50    0.20395      0.00000     0.79464    0.00141     0.79605
      H   51    0.20396      0.00000     0.79465    0.00139     0.79604
      H   52    0.20330      0.00000     0.79521    0.00150     0.79670
      H   53    0.20872      0.00000     0.78946    0.00182     0.79128
      H   54    0.21152      0.00000     0.78692    0.00157     0.78848
      H   55    0.21866      0.00000     0.77974    0.00159     0.78134
      H   56    0.21422      0.00000     0.78405    0.00173     0.78578
      H   57    0.21753      0.00000     0.78097    0.00150     0.78247
      H   58    0.21230      0.00000     0.78531    0.00239     0.78770
      H   59    0.21909      0.00000     0.77915    0.00176     0.78091
      H   60    0.21765      0.00000     0.78112    0.00123     0.78235
      H   61    0.21464      0.00000     0.78353    0.00183     0.78536
      H   62    0.21816      0.00000     0.78025    0.00158     0.78184
      H   63    0.23962      0.00000     0.75911    0.00128     0.76038
      H   64    0.21368      0.00000     0.78476    0.00156     0.78632
      H   65    0.23975      0.00000     0.75850    0.00175     0.76025
      H   66    0.51085      0.00000     0.48613    0.00302     0.48915
      H   67    0.21991      0.00000     0.77772    0.00237     0.78009
      H   68    0.21640      0.00000     0.78179    0.00181     0.78360
      H   69    0.22352      0.00000     0.77420    0.00228     0.77648
      H   70    0.22328      0.00000     0.77521    0.00151     0.77672
      H   71    0.21806      0.00000     0.78049    0.00146     0.78194
      H   72    0.22094      0.00000     0.77755    0.00151     0.77906
      H   73    0.21924      0.00000     0.77925    0.00151     0.78076
      H   74    0.23451      0.00000     0.76415    0.00134     0.76549
      H   75    0.51896      0.00000     0.47858    0.00246     0.48104
      H   76    0.21724      0.00000     0.78048    0.00228     0.78276
      H   77    0.21806      0.00000     0.78030    0.00163     0.78194
      H   78    0.22215      0.00000     0.77621    0.00164     0.77785
      H   79    0.21123      0.00000     0.78756    0.00120     0.78877
      H   80    0.21116      0.00000     0.78582    0.00302     0.78884
      H   81    0.21319      0.00000     0.78549    0.00132     0.78681
      H   82    0.19908      0.00000     0.79912    0.00179     0.80092
      H   83    0.20128      0.00000     0.79713    0.00159     0.79872
      H   84    0.20713      0.00000     0.79031    0.00256     0.79287
      H   85    0.20189      0.00000     0.79605    0.00206     0.79811
      H   86    0.23112      0.00000     0.76769    0.00119     0.76888
      H   87    0.21330      0.00000     0.78550    0.00120     0.78670
      H   88    0.23195      0.00000     0.76684    0.00121     0.76805
      H   89    0.41380      0.00000     0.58453    0.00167     0.58620
      H   90    0.22295      0.00000     0.77512    0.00193     0.77705
      H   91    0.23673      0.00000     0.76170    0.00158     0.76327
 =======================================================================
   * Total *   -0.00000    113.95359   254.94545    1.10096   370.00000

 Normal termination of Gaussian 16 at Sun Jan 15 13:04:47 2023.
