 Gaussian 16, Revision A.03,
 Gaussian 16:  AM64L-G16RevA.03 25-Dec-2016

 ----------------------------------------------------------------------
 # PBE1PBE/def2TZVP empiricaldispersion=GD3BJ scf=maxcycle=999 geom=che
 ck pop=nbo
 ----------------------------------------------------------------------

 ----------
 2gsm_III_H
 ----------
 Structure from the checkpoint file:  "2gsm_III_H.chk"
 Charge =  1 Multiplicity = 6

                         Standard orientation:
 ---------------------------------------------------------------------
 Center     Atomic      Atomic             Coordinates (Angstroms)
 Number     Number       Type             X           Y           Z
 ---------------------------------------------------------------------
      1          6           0       -0.484073   -0.887374    5.091567
      2          6           0        0.336697   -0.781941    3.830978
      3          7           0        1.677180   -1.103268    3.790683
      4          6           0        0.016619   -0.359343    2.579353
      5          6           0        2.149586   -0.882227    2.571856
      6          7           0        1.159835   -0.438291    1.812783
      7         26           0        0.974377   -0.010954   -0.243987
      8          6           0       -2.481787   -0.043760   -0.173503
      9          6           0        0.994501   -3.405448   -0.947618
     10          6           0        4.404886    0.063964   -0.693949
     11          6           0        0.944276    3.409136    0.005987
     12          7           0       -0.491197   -1.485253   -0.505078
     13          6           0       -1.855518   -1.242786   -0.494225
     14          6           0       -2.505525   -2.484873   -0.848488
     15          6           0       -1.554242   -3.414153   -1.072982
     16          6           0       -0.257906   -2.805091   -0.849274
     17          6           0       -1.820921   -4.846180   -1.492801
     18          6           0       -4.022502   -2.708520   -0.968752
     19          6           0       -4.598704   -3.129892    0.382473
     20          6           0       -6.111217   -3.098664    0.319178
     21          8           0       -6.743707   -4.108768    0.723992
     22          8           0       -6.702290   -2.073983   -0.132184
     23          7           0        2.466970   -1.440441   -0.779016
     24          6           0        2.244638   -2.794435   -0.913679
     25          6           0        3.555984   -3.425778   -1.011566
     26          6           0        4.495811   -2.467895   -0.949943
     27          6           0        3.820158   -1.180126   -0.795191
     28          6           0        3.826057   -4.935884   -1.161370
     29          7           0        2.413041    1.468102   -0.323802
     30          6           0        3.766960    1.281728   -0.527442
     31          6           0        4.403287    2.580486   -0.525571
     32          6           0        3.454160    3.520970   -0.320641
     33          6           0        2.174004    2.835371   -0.187367
     34          6           0        5.906364    2.814711   -0.744865
     35          6           0        3.658948    5.040420   -0.256812
     36          6           0        4.843300    5.563744    0.062257
     37          7           0       -0.526095    1.433201   -0.082061
     38          6           0       -0.305334    2.790365   -0.039597
     39          6           0       -1.612054    3.435314   -0.023057
     40          6           0       -2.551164    2.480890   -0.069431
     41          6           0       -1.880074    1.193226   -0.109880
     42          6           0       -1.843228    4.962158    0.023728
     43          6           0       -4.071936    2.634934   -0.040395
     44          6           0       -4.737706    3.160893   -1.309317
     45          6           0       -6.178493    3.393272   -0.877250
     46          8           0       -7.002076    2.444447   -0.922654
     47          8           0       -6.490628    4.531843   -0.470296
     48          6           0        6.019037   -2.677899   -1.126936
     49          6           0        6.728159   -2.758400    0.236239
     50          1           0        6.294479   -3.544776    0.817990
     51          1           0        7.768537   -2.958123    0.085830
     52          1           0        6.614579   -1.828280    0.752840
     53          1           0        6.187815   -3.587454   -1.664637
     54          1           0        6.423621   -1.859685   -1.685271
     55          1           0        3.324060   -5.303353   -2.031924
     56          1           0        4.878502   -5.101947   -1.259776
     57          1           0        3.463093   -5.450652   -0.296401
     58          1           0        0.996128   -4.469125   -1.063761
     59          1           0       -2.452105   -4.852916   -2.356781
     60          1           0       -0.894247   -5.328445   -1.724311
     61          1           0       -2.304641   -5.367953   -0.693634
     62          1           0       -4.272028   -4.121755    0.615690
     63          1           0       -4.259591   -2.455317    1.140663
     64          1           0       -4.211732   -3.476047   -1.689858
     65          1           0       -4.490775   -1.800340   -1.286290
     66          1           0       -7.596229   -4.326849    0.340264
     67          1           0       -3.528570   -0.086021    0.044119
     68          1           0       -4.495189    1.677274    0.180163
     69          1           0       -4.319768    3.299680    0.760599
     70          1           0       -2.891842    5.162046    0.096901
     71          1           0       -1.341589    5.372925    0.874921
     72          1           0       -1.456359    5.408961   -0.868236
     73          1           0       -4.691030    2.430941   -2.090274
     74          1           0       -4.284407    4.078784   -1.620599
     75          1           0       -7.805832    2.530871   -1.440444
     76          1           0        0.942477    4.458047    0.217368
     77          1           0        6.057443    3.307863   -1.682350
     78          1           0        6.291245    3.424996    0.045274
     79          1           0        6.416828    1.874340   -0.750190
     80          1           0        5.473028    0.091954   -0.750431
     81          1           0        4.735285    6.615044    0.229594
     82          1           0        5.211484    5.096958    0.951893
     83          1           0        5.533419    5.399129   -0.738704
     84          1           0        3.394489    5.430924   -1.217264
     85          1           0        2.950129    5.420830    0.448712
     86          1           0       -1.310842   -1.545823    4.924835
     87          1           0        0.124904   -1.272708    5.882493
     88          1           0       -0.848684    0.081594    5.361861
     89          1           0        2.210813   -1.449724    4.562178
     90          1           0        3.159930   -1.036518    2.255155
     91          1           0       -0.945443   -0.026664    2.249715
 ---------------------------------------------------------------------

 SCF Done:  E(UPBE1PBE) =  -3364.59495928     A.U. after   28 cycles

 Alpha virt. eigenvalues --    0.55881   0.56179   0.56392   0.56736   0.57227
 Alpha virt. eigenvalues --    0.57264   0.57601   0.57655   0.57903   0.58438
 Alpha virt. eigenvalues --    0.58496   0.58666   0.58819   0.59254   0.59719

  Beta  occ. eigenvalues -- -256.58381 -30.31310 -26.14701 -26.14456 -26.14417
  Beta  occ. eigenvalues --  -19.33792 -19.31740 -19.25017 -19.24162 -14.56453
  Beta  occ. eigenvalues --  -14.51824 -14.48837 -14.48837 -14.48688 -14.48579
  Beta  occ. eigenvalues --  -10.42944 -10.41639 -10.40514 -10.37631 -10.36251
  Beta  occ. eigenvalues --  -10.36209 -10.36205 -10.36183 -10.36148 -10.36144
  Beta  occ. eigenvalues --  -10.36142 -10.35950 -10.35219 -10.33239 -10.33058
  Beta  occ. eigenvalues --  -10.32908 -10.32817 -10.32634 -10.32622 -10.32609
  Beta  occ. eigenvalues --  -10.32565 -10.32512 -10.32394 -10.32319 -10.32245
  Beta  occ. eigenvalues --  -10.32229 -10.31557 -10.31428 -10.31141 -10.31033
  Beta  occ. eigenvalues --  -10.30295 -10.30232 -10.30225 -10.30072 -10.29819
  Beta  occ. eigenvalues --  -10.29160 -10.28745 -10.26672  -3.60013  -2.34763
  Beta  occ. eigenvalues --   -2.34050  -2.33990  -1.23910  -1.22519  -1.18261
  Beta  occ. eigenvalues --   -1.08979  -1.08756  -1.08703  -1.07898  -1.07575
  Beta  occ. eigenvalues --   -1.06782  -1.02913  -0.94507  -0.94019  -0.92979
  Beta  occ. eigenvalues --   -0.92625  -0.92229  -0.91962  -0.91811  -0.91259
  Beta  occ. eigenvalues --   -0.88731  -0.88252  -0.87835  -0.86608  -0.86424
  Beta  occ. eigenvalues --   -0.84062  -0.83429  -0.81947  -0.81338  -0.80842
  Beta  occ. eigenvalues --   -0.79418  -0.78679  -0.77203  -0.76579  -0.76540
  Beta  occ. eigenvalues --   -0.76277  -0.73824  -0.73397  -0.72947  -0.72631
  Beta  occ. eigenvalues --   -0.71953  -0.70062  -0.69166  -0.68099  -0.65929
  Beta  occ. eigenvalues --   -0.65331  -0.65044  -0.63892  -0.63140  -0.62794
  Beta  occ. eigenvalues --   -0.62210  -0.60446  -0.59970  -0.59360  -0.59240
  Beta  occ. eigenvalues --   -0.59012  -0.58619  -0.58249  -0.58244  -0.57948
  Beta  occ. eigenvalues --   -0.57567  -0.56884  -0.56440  -0.56133  -0.55923
  Beta  occ. eigenvalues --   -0.55496  -0.55019  -0.54669  -0.54407  -0.54171
  Beta  occ. eigenvalues --   -0.54043  -0.53820  -0.53525  -0.53334  -0.52927
  Beta  occ. eigenvalues --   -0.52819  -0.52654  -0.52482  -0.52316  -0.51848
  Beta  occ. eigenvalues --   -0.51574  -0.51159  -0.50908  -0.50682  -0.50431
  Beta  occ. eigenvalues --   -0.50392  -0.50242  -0.49791  -0.49545  -0.49135
  Beta  occ. eigenvalues --   -0.48634  -0.48400  -0.47957  -0.47805  -0.47321
  Beta  occ. eigenvalues --   -0.47098  -0.46864  -0.46693  -0.46578  -0.46270
  Beta  occ. eigenvalues --   -0.46000  -0.45373  -0.45072  -0.44798  -0.44222
  Beta  occ. eigenvalues --   -0.43736  -0.43634  -0.43611  -0.43288  -0.42749
  Beta  occ. eigenvalues --   -0.41925  -0.41581  -0.41383  -0.41041  -0.39423
  Beta  occ. eigenvalues --   -0.39285  -0.38720  -0.38693  -0.36030  -0.35454
  Beta  occ. eigenvalues --   -0.35102  -0.34878  -0.34593  -0.33922  -0.33598
  Beta  occ. eigenvalues --   -0.30887  -0.29723
  Beta virt. eigenvalues --   -0.21999  -0.21870  -0.20466  -0.19363  -0.17495
  Beta virt. eigenvalues --   -0.17250  -0.14627  -0.11223  -0.09262  -0.07675
  Beta virt. eigenvalues --   -0.07321  -0.06765  -0.06631  -0.05875  -0.05287

 Mulliken charges and spin densities:
               1          2
     1  C   -0.342155   0.001129
     2  C    0.095369   0.004913
     3  N   -0.201345   0.005226
     4  C   -0.140233   0.003064
     5  C    0.039156   0.006562
     6  N   -0.061785   0.083562
     7  Fe   0.251858   4.382448
     8  C   -0.536520  -0.005310
     9  C   -0.528430  -0.005091
    10  C   -0.526587  -0.011258
    11  C   -0.459276  -0.008410
    12  N   -0.133902   0.069535
    13  C    0.259985   0.010496
    14  C    0.037374   0.017932
    15  C   -0.080255   0.020290
    16  C    0.357853   0.007770
    17  C   -0.381004   0.000495
    18  C   -0.306038  -0.000471
    19  C   -0.171137   0.000750
    20  C    0.275791   0.000131
    21  O   -0.323889   0.000001
    22  O   -0.388754   0.000103
    23  N   -0.175985   0.076182
    24  C    0.268065   0.007264
    25  C   -0.063814   0.017051
    26  C    0.009984   0.015747
    27  C    0.227387   0.013542
    28  C   -0.375705  -0.000016
    29  N   -0.124450   0.075452
    30  C    0.341740   0.011194
    31  C   -0.037669   0.023231
    32  C   -0.073872   0.018651
    33  C    0.317333   0.013532
    34  C   -0.390115   0.000202
    35  C   -0.163303  -0.000171
    36  C   -0.400775   0.000138
    37  N   -0.158337   0.070721
    38  C    0.291734   0.011927
    39  C   -0.082940   0.016350
    40  C    0.109660   0.020923
    41  C    0.294864   0.011195
    42  C   -0.401433   0.000214
    43  C   -0.490258  -0.000738
    44  C   -0.115562   0.001098
    45  C    0.262231   0.000092
    46  O   -0.339509   0.000052
    47  O   -0.346548   0.000183
    48  C   -0.248870   0.000003
    49  C   -0.365881   0.000653
    50  H    0.125690  -0.000018
    51  H    0.142860   0.000157
    52  H    0.116185  -0.000003
    53  H    0.130124   0.000464
    54  H    0.121537   0.000178
    55  H    0.148796   0.000512
    56  H    0.134131   0.000400
    57  H    0.145404   0.000500
    58  H    0.139223  -0.000434
    59  H    0.153991   0.000840
    60  H    0.131085  -0.000008
    61  H    0.146084   0.000769
    62  H    0.125216  -0.000027
    63  H    0.134008  -0.000005
    64  H    0.131954   0.000498
    65  H    0.159796   0.000207
    66  H    0.358573   0.000031
    67  H    0.168742  -0.000477
    68  H    0.138016   0.000095
    69  H    0.162707   0.000687
    70  H    0.165542   0.000342
    71  H    0.142658   0.000477
    72  H    0.157165   0.000534
    73  H    0.115566   0.000024
    74  H    0.137599  -0.000059
    75  H    0.364425  -0.000004
    76  H    0.144431  -0.000249
    77  H    0.163719   0.001087
    78  H    0.161516   0.000714
    79  H    0.128645   0.000031
    80  H    0.119592  -0.000414
    81  H    0.141609   0.000165
    82  H    0.119479   0.000090
    83  H    0.131817  -0.000022
    84  H    0.123220   0.000994
    85  H    0.101884   0.000363
    86  H    0.158502   0.000066
    87  H    0.131403   0.000207
    88  H    0.162989   0.000079
    89  H    0.251405   0.001478
    90  H    0.186329   0.000327
    91  H    0.172331   0.000861
 Sum of Mulliken charges =   1.00000   5.00000

 Dipole moment (field-independent basis, Debye):
    X=              6.0704    Y=             -5.7519    Z=              4.3496  Tot=              9.4262
 Quadrupole moment (field-independent basis, Debye-Ang):
   XX=           -207.1630   YY=           -228.5499   ZZ=           -248.4247
   XY=             31.1755   XZ=             17.6565   YZ=             -7.9338

 Summary of Natural Population Analysis:

                                       Natural Population
                Natural  -----------------------------------------------
    Atom  No    Charge         Core      Valence    Rydberg      Total
 -----------------------------------------------------------------------
      C    1   -0.32066      0.99969     2.31780    0.00317     3.32066
      C    2    0.06661      0.99955     1.92480    0.00904     2.93339
      N    3   -0.23008      0.99968     2.72057    0.00983     3.73008
      C    4   -0.03921      0.99945     2.03085    0.00891     3.03921
      C    5    0.10568      0.99967     1.88506    0.00959     2.89432
      N    6   -0.16802      0.99970     2.64891    0.01941     3.66802
     Fe    7    2.68192      8.99588     1.30392    0.01828    10.31808
      C    8   -0.11494      0.99948     2.10742    0.00804     3.11494
      C    9   -0.10587      0.99950     2.09885    0.00752     3.10587
      C   10   -0.11519      0.99948     2.10790    0.00781     3.11519
      C   11   -0.11139      0.99948     2.10440    0.00751     3.11139
      N   12   -0.20086      0.99970     2.68184    0.01932     3.70086
      C   13    0.08091      0.99952     1.90990    0.00967     2.91909
      C   14    0.00236      0.99940     1.98915    0.00910     2.99764
      C   15    0.00529      0.99941     1.98706    0.00823     2.99471
      C   16    0.08099      0.99953     1.90942    0.01006     2.91901
      C   17   -0.31978      0.99970     2.31401    0.00607     3.31978
      C   18   -0.20979      0.99967     2.20329    0.00684     3.20979
      C   19   -0.24710      0.99962     2.23917    0.00830     3.24710
      C   20    0.38217      0.99977     1.60040    0.01766     2.61783
      O   21   -0.32319      0.99981     3.31002    0.01336     4.32319
      O   22   -0.30760      0.99990     3.29611    0.01159     4.30760
      N   23   -0.19743      0.99969     2.67945    0.01830     3.69743
      C   24    0.07952      0.99954     1.91093    0.01001     2.92048
      C   25    0.00317      0.99938     1.98925    0.00820     2.99683
      C   26    0.00129      0.99939     1.98982    0.00950     2.99871
      C   27    0.07996      0.99953     1.91040    0.01010     2.92004
      C   28   -0.31921      0.99970     2.31596    0.00355     3.31921
      N   29   -0.19863      0.99970     2.68080    0.01813     3.69863
      C   30    0.08395      0.99952     1.90637    0.01015     2.91605
      C   31    0.00596      0.99941     1.98660    0.00803     2.99404
      C   32    0.01082      0.99941     1.98093    0.00884     2.98918
      C   33    0.08748      0.99952     1.90352    0.00948     2.91252
      C   34   -0.31859      0.99969     2.31511    0.00378     3.31859
      C   35   -0.21087      0.99954     2.20334    0.00799     3.21087
      C   36   -0.29669      0.99959     2.28890    0.00821     3.29669
      N   37   -0.20487      0.99968     2.68702    0.01816     3.70487
      C   38    0.08880      0.99955     1.90189    0.00977     2.91120
      C   39    0.00723      0.99938     1.98547    0.00792     2.99277
      C   40    0.00376      0.99939     1.98767    0.00918     2.99624
      C   41    0.08000      0.99952     1.91040    0.01008     2.92000
      C   42   -0.32100      0.99970     2.31773    0.00358     3.32100
      C   43   -0.21131      0.99965     2.20551    0.00615     3.21131
      C   44   -0.24444      0.99963     2.23635    0.00846     3.24444
      C   45    0.38371      0.99977     1.59784    0.01868     2.61629
      O   46   -0.33923      0.99980     3.32528    0.01415     4.33923
      O   47   -0.28865      0.99989     3.27669    0.01206     4.28865
      C   48   -0.20985      0.99969     2.20369    0.00647     3.20985
      C   49   -0.29768      0.99972     2.29517    0.00279     3.29768
      H   50    0.10343      0.00000     0.39590    0.00067     0.39657
      H   51    0.10934      0.00000     0.39006    0.00060     0.39066
      H   52    0.10044      0.00000     0.39886    0.00070     0.39956
      H   53    0.11013      0.00000     0.38904    0.00083     0.38987
      H   54    0.10896      0.00000     0.39031    0.00073     0.39104
      H   55    0.11460      0.00000     0.38470    0.00070     0.38540
      H   56    0.11291      0.00000     0.38631    0.00078     0.38709
      H   57    0.11354      0.00000     0.38579    0.00067     0.38646
      H   58    0.11491      0.00000     0.38396    0.00113     0.38509
      H   59    0.11667      0.00000     0.38266    0.00067     0.38333
      H   60    0.11140      0.00000     0.38816    0.00043     0.38860
      H   61    0.11430      0.00000     0.38497    0.00074     0.38570
      H   62    0.11114      0.00000     0.38809    0.00077     0.38886
      H   63    0.11756      0.00000     0.38183    0.00061     0.38244
      H   64    0.11236      0.00000     0.38691    0.00073     0.38764
      H   65    0.12264      0.00000     0.37650    0.00086     0.37736
      H   66    0.25939      0.00000     0.23930    0.00131     0.24061
      H   67    0.11889      0.00000     0.37993    0.00117     0.38111
      H   68    0.10941      0.00000     0.38970    0.00089     0.39059
      H   69    0.11759      0.00000     0.38132    0.00109     0.38241
      H   70    0.11764      0.00000     0.38165    0.00072     0.38236
      H   71    0.11367      0.00000     0.38568    0.00065     0.38633
      H   72    0.11578      0.00000     0.38355    0.00066     0.38422
      H   73    0.11053      0.00000     0.38873    0.00073     0.38947
      H   74    0.11866      0.00000     0.38070    0.00064     0.38134
      H   75    0.26275      0.00000     0.23611    0.00113     0.23725
      H   76    0.11766      0.00000     0.38127    0.00107     0.38234
      H   77    0.11642      0.00000     0.38287    0.00071     0.38358
      H   78    0.11769      0.00000     0.38157    0.00074     0.38231
      H   79    0.10764      0.00000     0.39179    0.00057     0.39236
      H   80    0.11454      0.00000     0.38403    0.00143     0.38546
      H   81    0.11361      0.00000     0.38580    0.00058     0.38639
      H   82    0.10081      0.00000     0.39837    0.00082     0.39919
      H   83    0.10300      0.00000     0.39626    0.00074     0.39700
      H   84    0.11012      0.00000     0.38871    0.00117     0.38988
      H   85    0.10404      0.00000     0.39499    0.00097     0.39596
      H   86    0.12023      0.00000     0.37923    0.00054     0.37977
      H   87    0.11245      0.00000     0.38699    0.00056     0.38755
      H   88    0.12116      0.00000     0.37830    0.00055     0.37884
      H   89    0.21489      0.00000     0.28434    0.00077     0.28511
      H   90    0.11594      0.00000     0.38310    0.00096     0.38406
      H   91    0.12170      0.00000     0.37752    0.00078     0.37830
 =======================================================================
   * Total *    3.00000     56.97656   124.49878    0.52466   182.00000

 Normal termination of Gaussian 16 at Wed Jan 25 11:06:22 2023.
