 Gaussian 16, Revision A.03,
 Gaussian 16:  ES64L-G16RevA.03 25-Dec-2016

 ----------------------------------------------------------------------
 # PBE1PBE/def2TZVP empiricaldispersion=GD3BJ scf=maxcycle=999 geom=che
 ck pop=nbo
 ----------------------------------------------------------------------

 ----------
 1ehb_III_D
 ----------
 Structure from the checkpoint file:  "1ehb_III_D.chk"
 Charge =  1 Multiplicity = 2

                         Standard orientation:
 ---------------------------------------------------------------------
 Center     Atomic      Atomic             Coordinates (Angstroms)
 Number     Number       Type             X           Y           Z
 ---------------------------------------------------------------------
      1          6           0       -2.131637   -0.044331    5.640119
      2          6           0       -1.686742    0.448758    4.300544
      3          7           0       -1.552855    1.779125    3.978134
      4          6           0       -1.384177   -0.239468    3.169425
      5          6           0       -1.188747    1.857196    2.695580
      6          7           0       -1.074770    0.657041    2.164493
      7          6           0        0.257533   -2.396259   -4.681022
      8          6           0       -0.054715   -1.350203   -3.664109
      9          7           0       -0.273762   -0.022499   -3.956702
     10          6           0       -0.141807   -1.445332   -2.317391
     11          6           0       -0.478391    0.620877   -2.798624
     12          7           0       -0.404225   -0.204674   -1.781650
     13         26           0       -0.728798    0.136234    0.197963
     14          6           0        2.601844   -0.285259    0.818127
     15          6           0       -1.258321   -3.210070    0.824374
     16          6           0       -4.035845    0.490128   -0.586285
     17          6           0       -0.214560    3.493861   -0.296814
     18          7           0        0.403179   -1.393623    0.708955
     19          6           0        1.784226   -1.408179    0.851047
     20          6           0        2.271609   -2.759918    1.056735
     21          6           0        1.182376   -3.557561    1.143883
     22          6           0        0.028657   -2.717280    0.924607
     23          6           0        1.138130   -5.041845    1.471580
     24          6           0        3.728532   -3.210343    1.067336
     25          6           0        4.412504   -3.174056   -0.295282
     26          6           0        3.706235   -4.028916   -1.321671
     27          8           0        3.461334   -5.216697   -1.037119
     28          8           0        3.398723   -3.512954   -2.417947
     29          7           0       -2.305852   -1.088801    0.156548
     30          6           0       -2.350842   -2.445049    0.428953
     31          6           0       -3.689749   -2.979606    0.246501
     32          6           0       -4.481517   -1.951854   -0.059538
     33          6           0       -3.623161   -0.770059   -0.178296
     34          6           0       -4.130864   -4.433068    0.360528
     35          6           0       -5.872224   -2.026925   -0.019348
     36          6           0       -6.699177   -1.793106   -1.104861
     37          7           0       -1.877072    1.664517   -0.338048
     38          6           0       -3.219516    1.619245   -0.697057
     39          6           0       -3.676592    2.915763   -1.159235
     40          6           0       -2.623614    3.776701   -1.045322
     41          6           0       -1.508436    3.002966   -0.516022
     42          6           0       -5.085561    3.251442   -1.645840
     43          6           0       -2.552457    5.101568   -1.453269
     44          6           0       -3.551075    6.065509   -1.277649
     45          7           0        0.850977    1.347323    0.251994
     46          6           0        0.896145    2.716262    0.064370
     47          6           0        2.257090    3.223776    0.301118
     48          6           0        3.057891    2.159305    0.570006
     49          6           0        2.172922    0.996862    0.543003
     50          6           0        2.692901    4.681084    0.333196
     51          6           0        4.570234    2.145375    0.862598
     52          6           0        5.418501    2.249695   -0.400396
     53          6           0        6.896050    2.467609   -0.111073
     54          8           0        7.528615    3.262176   -0.829105
     55          8           0        7.427656    1.842218    0.825966
     56          1           0        7.311744    0.891782    0.895505
     57          1           0        5.308374    1.346622   -0.963630
     58          1           0        5.059380    3.068149   -0.988669
     59          1           0        4.814986    1.234370    1.367639
     60          1           0        4.804593    2.969174    1.503949
     61          1           0        5.417702   -3.524319   -0.186687
     62          1           0        4.434308   -2.162727   -0.644047
     63          1           0        4.273294   -2.577080    1.736000
     64          1           0        3.769808   -4.212604    1.439718
     65          1           0        3.038242   -5.787523   -1.682681
     66          1           0        3.642933   -0.425455    1.021543
     67          1           0        2.041178    5.261958   -0.285466
     68          1           0        2.648207    5.044677    1.338533
     69          1           0        3.695821    4.761530   -0.030920
     70          1           0       -0.061138    4.546270   -0.414279
     71          1           0       -1.424172   -4.239444    1.064754
     72          1           0        1.045875   -5.604416    0.566096
     73          1           0        2.039089   -5.322790    1.975805
     74          1           0        0.298293   -5.242724    2.103420
     75          1           0       -5.069104    0.607905   -0.838086
     76          1           0       -5.709845    2.387272   -1.554305
     77          1           0       -5.487679    4.046338   -1.053099
     78          1           0       -5.045832    3.555787   -2.670874
     79          1           0       -4.040790   -4.909033   -0.593538
     80          1           0       -3.511561   -4.939030    1.071419
     81          1           0       -5.150111   -4.472151    0.683805
     82          1           0       -6.589861   -0.895674   -1.677194
     83          1           0       -7.447595   -2.509834   -1.371453
     84          1           0       -6.331766   -2.282309    0.912586
     85          1           0       -3.293107    7.103463   -1.245980
     86          1           0       -4.572806    5.764796   -1.174999
     87          1           0       -1.654829    5.413016   -1.945371
     88          1           0       -2.125218   -1.114293    5.646499
     89          1           0       -1.465674    0.320838    6.393806
     90          1           0       -3.122403    0.307588    5.838702
     91          1           0       -1.013072    2.772307    2.169642
     92          1           0       -1.385231   -1.305031    3.072087
     93          1           0       -1.701877    2.551733    4.595280
     94          1           0       -0.676074    1.669106   -2.714739
     95          1           0       -0.279197    0.387726   -4.868670
     96          1           0       -0.024559   -2.347617   -1.754333
     97          1           0       -0.654257   -2.792497   -5.076668
     98          1           0        0.831741   -1.963318   -5.473327
     99          1           0        0.819056   -3.183186   -4.222396
 ---------------------------------------------------------------------

 SCF Done:  E(UPBE1PBE) =  -3627.47882361     A.U. after   63 cycles

 Alpha virt. eigenvalues --    1.04175   1.04728   1.04959   1.05187   1.05381
 Alpha virt. eigenvalues --    1.05814   1.05844   1.06421   1.06811   1.07063
 Alpha virt. eigenvalues --    1.07259   1.07471   1.07833   1.08083   1.08246

  Beta  occ. eigenvalues -- -256.50420 -30.27008 -26.10041 -26.09829 -26.09127
  Beta  occ. eigenvalues --  -19.35088 -19.32975 -19.25301 -19.24235 -14.54848
  Beta  occ. eigenvalues --  -14.54423 -14.50602 -14.50510 -14.48523 -14.48520
  Beta  occ. eigenvalues --  -14.48507 -14.48493 -10.43133 -10.41669 -10.38690
  Beta  occ. eigenvalues --  -10.38381 -10.35933 -10.35628 -10.35517 -10.35313
  Beta  occ. eigenvalues --  -10.35244 -10.35197 -10.35105 -10.35071 -10.35066
  Beta  occ. eigenvalues --  -10.35013 -10.33509 -10.32785 -10.32275 -10.32237
  Beta  occ. eigenvalues --  -10.32219 -10.32055 -10.32049 -10.31933 -10.31863
  Beta  occ. eigenvalues --  -10.31785 -10.31747 -10.31710 -10.31687 -10.31660
  Beta  occ. eigenvalues --  -10.31608 -10.31558 -10.31505 -10.31428 -10.31418
  Beta  occ. eigenvalues --  -10.31222 -10.30718 -10.30685 -10.30435 -10.30404
  Beta  occ. eigenvalues --  -10.30151 -10.29893 -10.29663 -10.29611  -3.59259
  Beta  occ. eigenvalues --   -2.34532  -2.34468  -2.33987  -1.25615  -1.23865
  Beta  occ. eigenvalues --   -1.16570  -1.16230  -1.10180  -1.09318  -1.07853
  Beta  occ. eigenvalues --   -1.06808  -1.06708  -1.05708  -1.01786  -1.01610
  Beta  occ. eigenvalues --   -0.93725  -0.93260  -0.93056  -0.92804  -0.92330
  Beta  occ. eigenvalues --   -0.90788  -0.90693  -0.90346  -0.90175  -0.88654
  Beta  occ. eigenvalues --   -0.87782  -0.86395  -0.85450  -0.85211  -0.82981
  Beta  occ. eigenvalues --   -0.82059  -0.81618  -0.81435  -0.80891  -0.80550
  Beta  occ. eigenvalues --   -0.79168  -0.78654  -0.76875  -0.75750  -0.75227
  Beta  occ. eigenvalues --   -0.75161  -0.74870  -0.74342  -0.74176  -0.72162
  Beta  occ. eigenvalues --   -0.71629  -0.71579  -0.71378  -0.68783  -0.67700
  Beta  occ. eigenvalues --   -0.66639  -0.66228  -0.65166  -0.64451  -0.64099
  Beta  occ. eigenvalues --   -0.63380  -0.62304  -0.61772  -0.61193  -0.60694
  Beta  occ. eigenvalues --   -0.59986  -0.59127  -0.58781  -0.58572  -0.58232
  Beta  occ. eigenvalues --   -0.58033  -0.58028  -0.57762  -0.57660  -0.57341
  Beta  occ. eigenvalues --   -0.57015  -0.56508  -0.55476  -0.54977  -0.54725
  Beta  occ. eigenvalues --   -0.54441  -0.54339  -0.53956  -0.53746  -0.53548
  Beta  occ. eigenvalues --   -0.53216  -0.53117  -0.53007  -0.52831  -0.52765
  Beta  occ. eigenvalues --   -0.52355  -0.52269  -0.52176  -0.51885  -0.51530
  Beta  occ. eigenvalues --   -0.51500  -0.51395  -0.51250  -0.51072  -0.50886
  Beta  occ. eigenvalues --   -0.50790  -0.50719  -0.50022  -0.49888  -0.49704
  Beta  occ. eigenvalues --   -0.49413  -0.49213  -0.49166  -0.48568  -0.48423
  Beta  occ. eigenvalues --   -0.48053  -0.47788  -0.47634  -0.47549  -0.47191
  Beta  occ. eigenvalues --   -0.46941  -0.46759  -0.46316  -0.46017  -0.45732
  Beta  occ. eigenvalues --   -0.45352  -0.45031  -0.44822  -0.44326  -0.43685
  Beta  occ. eigenvalues --   -0.43093  -0.42620  -0.42368  -0.42220  -0.41854
  Beta  occ. eigenvalues --   -0.40455  -0.40353  -0.39583  -0.39176  -0.38307
  Beta  occ. eigenvalues --   -0.37727  -0.36804  -0.36540  -0.35555  -0.34923
  Beta  occ. eigenvalues --   -0.34608  -0.34209  -0.33830  -0.33583  -0.32641
  Beta  occ. eigenvalues --   -0.31359  -0.30511  -0.29433  -0.28324
  Beta virt. eigenvalues --   -0.19087  -0.17318  -0.15175  -0.12993  -0.12653
  Beta virt. eigenvalues --   -0.11545  -0.10198  -0.09014  -0.08240  -0.08041
  Beta virt. eigenvalues --   -0.07179  -0.06658  -0.06118  -0.05606  -0.05520

 Mulliken charges and spin densities:
               1          2
     1  C   -0.371767  -0.000233
     2  C    0.156595  -0.000305
     3  N   -0.203768   0.002641
     4  C   -0.204476   0.001799
     5  C    0.035121   0.012506
     6  N    0.067557  -0.041160
     7  C   -0.373087  -0.000264
     8  C    0.144219   0.000122
     9  N   -0.205813   0.002590
    10  C   -0.168271   0.001768
    11  C    0.029861   0.013337
    12  N    0.094975  -0.042504
    13  Fe  -0.364722   1.116903
    14  C   -0.484527  -0.009048
    15  C   -0.562260  -0.006495
    16  C   -0.447906  -0.006899
    17  C   -0.554233  -0.000881
    18  N    0.010948  -0.030375
    19  C    0.312647   0.003339
    20  C   -0.138068   0.016672
    21  C    0.006130  -0.005473
    22  C    0.157403   0.013010
    23  C   -0.381525  -0.000260
    24  C   -0.228136  -0.001307
    25  C   -0.153660   0.000623
    26  C    0.274395   0.000095
    27  O   -0.317070  -0.000011
    28  O   -0.390502  -0.000000
    29  N    0.019587  -0.034037
    30  C    0.297791   0.014358
    31  C   -0.062644  -0.010833
    32  C    0.049661   0.023963
    33  C    0.235163   0.000261
    34  C   -0.375469  -0.000159
    35  C   -0.298214  -0.052792
    36  C   -0.260976   0.061320
    37  N    0.020959  -0.033586
    38  C    0.326964   0.001665
    39  C   -0.103937   0.012803
    40  C    0.075154  -0.002058
    41  C    0.089572   0.005951
    42  C   -0.379326  -0.000718
    43  C   -0.225837   0.000089
    44  C   -0.248120  -0.000660
    45  N    0.035947  -0.037063
    46  C    0.270246   0.004523
    47  C   -0.061708  -0.002154
    48  C    0.018740   0.011370
    49  C    0.324348   0.004206
    50  C   -0.389651  -0.000506
    51  C   -0.376499  -0.000858
    52  C   -0.251847   0.000438
    53  C    0.300253   0.000060
    54  O   -0.326624   0.000105
    55  O   -0.305589  -0.000001
    56  H    0.346282   0.000001
    57  H    0.140280   0.000011
    58  H    0.134877  -0.000017
    59  H    0.091502   0.000060
    60  H    0.154429   0.000219
    61  H    0.133781   0.000094
    62  H    0.121120  -0.000025
    63  H    0.131044   0.000497
    64  H    0.123753   0.000063
    65  H    0.349597  -0.000002
    66  H    0.097528   0.000209
    67  H    0.136993  -0.000014
    68  H    0.153901   0.000003
    69  H    0.149881  -0.000105
    70  H    0.132129   0.000054
    71  H    0.117894   0.000298
    72  H    0.135942  -0.000116
    73  H    0.144807  -0.000118
    74  H    0.142276  -0.000065
    75  H    0.108561   0.000083
    76  H    0.127733  -0.000006
    77  H    0.136024   0.000459
    78  H    0.162420   0.000492
    79  H    0.154407  -0.000386
    80  H    0.129201  -0.000024
    81  H    0.147969  -0.000087
    82  H    0.137129  -0.004054
    83  H    0.156161  -0.003888
    84  H    0.157814   0.003891
    85  H    0.151457  -0.000002
    86  H    0.133020   0.000048
    87  H    0.135408  -0.000048
    88  H    0.148841  -0.000016
    89  H    0.148940  -0.000038
    90  H    0.151448  -0.000033
    91  H    0.191219  -0.000842
    92  H    0.159575  -0.000376
    93  H    0.251649  -0.000411
    94  H    0.179538  -0.000917
    95  H    0.251066  -0.000412
    96  H    0.149651  -0.000355
    97  H    0.153240   0.000073
    98  H    0.135738  -0.000090
    99  H    0.165770   0.000013
 Sum of Mulliken charges =   1.00000   1.00000

 Dipole moment (field-independent basis, Debye):
    X=             -6.6159    Y=             -3.4338    Z=              3.1404  Tot=              8.0885
 Quadrupole moment (field-independent basis, Debye-Ang):
   XX=           -294.7776   YY=           -251.3572   ZZ=           -254.7393
   XY=            -38.2663   XZ=             11.1185   YZ=              9.1386

 Summary of Natural Population Analysis:

                                       Natural Population
                Natural  -----------------------------------------------
    Atom  No    Charge         Core      Valence    Rydberg      Total
 -----------------------------------------------------------------------
      C    1   -0.32030      0.99969     2.31751    0.00311     3.32030
      C    2    0.05856      0.99955     1.93298    0.00892     2.94144
      N    3   -0.23605      0.99969     2.72661    0.00976     3.73605
      C    4   -0.03416      0.99945     2.02550    0.00920     3.03416
      C    5    0.11407      0.99967     1.87583    0.01044     2.88593
      N    6   -0.18399      0.99969     2.66112    0.02318     3.68399
      C    7   -0.32206      0.99969     2.31660    0.00578     3.32206
      C    8    0.06236      0.99954     1.92909    0.00901     2.93764
      N    9   -0.23500      0.99969     2.72571    0.00959     3.73500
      C   10   -0.03326      0.99944     2.02469    0.00913     3.03326
      C   11    0.11341      0.99966     1.87631    0.01061     2.88659
      N   12   -0.18158      0.99967     2.65838    0.02353     3.68158
     Fe   13    0.70345      8.99483     3.27836    0.02337    12.29655
      C   14   -0.11965      0.99948     2.11172    0.00846     3.11965
      C   15   -0.12924      0.99948     2.12187    0.00789     3.12924
      C   16   -0.11395      0.99949     2.10630    0.00815     3.11395
      C   17   -0.13348      0.99950     2.12603    0.00795     3.13348
      N   18   -0.20600      0.99967     2.68366    0.02267     3.70600
      C   19    0.08403      0.99951     1.90655    0.00991     2.91597
      C   20   -0.00399      0.99941     1.99504    0.00955     3.00399
      C   21   -0.00952      0.99941     2.00176    0.00834     3.00952
      C   22    0.08558      0.99950     1.90481    0.01011     2.91442
      C   23   -0.31822      0.99969     2.31484    0.00369     3.31822
      C   24   -0.21280      0.99966     2.20620    0.00694     3.21280
      C   25   -0.24538      0.99962     2.23725    0.00851     3.24538
      C   26    0.38398      0.99976     1.59788    0.01837     2.61602
      O   27   -0.32108      0.99981     3.30764    0.01363     4.32108
      O   28   -0.31131      0.99989     3.29913    0.01228     4.31131
      N   29   -0.20250      0.99968     2.68031    0.02251     3.70250
      C   30    0.09533      0.99952     1.89506    0.01009     2.90467
      C   31   -0.00371      0.99939     1.99598    0.00834     3.00371
      C   32   -0.03775      0.99936     2.02737    0.01102     3.03775
      C   33    0.09167      0.99953     1.89885    0.00995     2.90833
      C   34   -0.31759      0.99970     2.31428    0.00362     3.31759
      C   35   -0.12309      0.99961     2.11275    0.01073     3.12309
      C   36   -0.14641      0.99968     2.13848    0.00825     3.14641
      N   37   -0.20933      0.99968     2.68691    0.02275     3.70933
      C   38    0.07681      0.99952     1.91347    0.01021     2.92319
      C   39    0.01683      0.99945     1.97556    0.00816     2.98317
      C   40   -0.06107      0.99943     2.05127    0.01036     3.06107
      C   41    0.08893      0.99954     1.90130    0.01023     2.91107
      C   42   -0.31766      0.99969     2.31410    0.00387     3.31766
      C   43   -0.10735      0.99961     2.09847    0.00928     3.10735
      C   44   -0.17053      0.99970     2.16503    0.00580     3.17053
      N   45   -0.20232      0.99967     2.67929    0.02336     3.70232
      C   46    0.08370      0.99954     1.90636    0.01039     2.91630
      C   47   -0.00612      0.99943     1.99871    0.00798     3.00612
      C   48   -0.00421      0.99941     1.99534    0.00946     3.00421
      C   49    0.08431      0.99950     1.90636    0.00983     2.91569
      C   50   -0.32008      0.99969     2.31660    0.00379     3.32008
      C   51   -0.21261      0.99966     2.20569    0.00726     3.21261
      C   52   -0.25575      0.99963     2.24739    0.00873     3.25575
      C   53    0.37950      0.99975     1.60290    0.01785     2.62050
      O   54   -0.27351      0.99989     3.26149    0.01213     4.27351
      O   55   -0.32666      0.99980     3.31131    0.01556     4.32666
      H   56    0.25207      0.00000     0.24679    0.00113     0.24793
      H   57    0.11281      0.00000     0.38647    0.00072     0.38719
      H   58    0.12000      0.00000     0.37924    0.00076     0.38000
      H   59    0.10354      0.00000     0.39558    0.00088     0.39646
      H   60    0.11567      0.00000     0.38352    0.00081     0.38433
      H   61    0.11906      0.00000     0.38032    0.00062     0.38094
      H   62    0.11758      0.00000     0.38174    0.00067     0.38242
      H   63    0.11158      0.00000     0.38768    0.00074     0.38842
      H   64    0.11442      0.00000     0.38475    0.00083     0.38558
      H   65    0.25750      0.00000     0.24098    0.00152     0.24250
      H   66    0.10730      0.00000     0.39124    0.00146     0.39270
      H   67    0.11112      0.00000     0.38828    0.00060     0.38888
      H   68    0.11500      0.00000     0.38426    0.00074     0.38500
      H   69    0.11509      0.00000     0.38414    0.00076     0.38491
      H   70    0.11639      0.00000     0.38232    0.00129     0.38361
      H   71    0.11448      0.00000     0.38417    0.00134     0.38552
      H   72    0.11227      0.00000     0.38692    0.00081     0.38773
      H   73    0.11418      0.00000     0.38509    0.00073     0.38582
      H   74    0.11194      0.00000     0.38740    0.00067     0.38806
      H   75    0.11209      0.00000     0.38656    0.00135     0.38791
      H   76    0.10956      0.00000     0.38989    0.00055     0.39044
      H   77    0.11244      0.00000     0.38668    0.00088     0.38756
      H   78    0.11812      0.00000     0.38109    0.00079     0.38188
      H   79    0.11597      0.00000     0.38330    0.00074     0.38403
      H   80    0.10869      0.00000     0.39070    0.00061     0.39131
      H   81    0.11648      0.00000     0.38276    0.00076     0.38352
      H   82    0.09486      0.00000     0.40408    0.00106     0.40514
      H   83    0.10424      0.00000     0.39498    0.00078     0.39576
      H   84    0.11078      0.00000     0.38789    0.00133     0.38922
      H   85    0.10518      0.00000     0.39416    0.00066     0.39482
      H   86    0.09570      0.00000     0.40332    0.00099     0.40430
      H   87    0.10581      0.00000     0.39328    0.00091     0.39419
      H   88    0.12005      0.00000     0.37950    0.00045     0.37995
      H   89    0.11427      0.00000     0.38506    0.00067     0.38573
      H   90    0.11489      0.00000     0.38444    0.00067     0.38511
      H   91    0.11520      0.00000     0.38403    0.00078     0.38480
      H   92    0.11686      0.00000     0.38238    0.00076     0.38314
      H   93    0.21424      0.00000     0.28500    0.00075     0.28576
      H   94    0.11335      0.00000     0.38586    0.00079     0.38665
      H   95    0.21431      0.00000     0.28494    0.00076     0.28569
      H   96    0.11706      0.00000     0.38204    0.00090     0.38294
      H   97    0.11481      0.00000     0.38465    0.00054     0.38519
      H   98    0.11381      0.00000     0.38570    0.00050     0.38619
      H   99    0.12596      0.00000     0.37346    0.00058     0.37404
 =======================================================================
   * Total *    1.00000     62.97317   140.38660    0.64023   204.00000

 Normal termination of Gaussian 16 at Wed Apr  5 02:35:27 2023.
