 Gaussian 16, Revision A.03,
 Gaussian 16:  ES64L-G16RevA.03 25-Dec-2016

 ----------------------------------------------------------------------
 # PBE1PBE/def2TZVP empiricaldispersion=GD3BJ scf=maxcycle=999 geom=che
 ck pop=nbo
 ----------------------------------------------------------------------

 ----------
 1cmt_III_D
 ----------
 Structure from the checkpoint file:  "1cmt_III_D.chk"
 Charge =  1 Multiplicity = 2

                         Standard orientation:
 ---------------------------------------------------------------------
 Center     Atomic      Atomic             Coordinates (Angstroms)
 Number     Number       Type             X           Y           Z
 ---------------------------------------------------------------------
      1          6           0       -1.403921   -1.808380    4.954677
      2          6           0       -1.538406   -0.933030    3.707023
      3          7           0       -2.140717    0.238213    3.547021
      4          6           0       -0.978698   -1.214236    2.471389
      5          6           0       -1.955322    0.668200    2.314520
      6          7           0       -1.246482   -0.217511    1.656150
      7          6           0        2.384055    0.132499    0.255263
      8          6           0       -1.011414    3.457681   -0.239385
      9          6           0       -4.318413   -0.000245   -0.607826
     10          6           0       -0.816123   -3.280339   -0.665192
     11          6           0        1.769361    1.395727    0.195090
     12          6           0        2.430390    2.611118    0.193664
     13          6           0        1.448885    3.590432    0.070491
     14          6           0        0.258373    2.891972   -0.032960
     15          6           0        1.636834    5.105998    0.073343
     16          6           0        3.932014    2.808772    0.274719
     17          6           0        4.649452    2.805400   -1.082625
     18          6           0        6.145829    2.912281   -0.860928
     19          8           0        6.618720    3.885272   -0.293275
     20          8           0        6.894791    2.022645   -1.218749
     21          6           0       -2.269133    2.834061   -0.379750
     22          6           0       -3.483307    3.504292   -0.399003
     23          6           0       -4.456244    2.479119   -0.426188
     24          6           0       -3.755914    1.278367   -0.498850
     25          6           0       -3.626566    5.035306   -0.363993
     26          6           0       -5.849091    2.534316   -0.322827
     27          6           0       -6.536806    3.836675    0.127183
     28          6           0       -3.659476   -1.236218   -0.734181
     29          6           0       -4.298888   -2.434034   -1.014542
     30          6           0       -3.251467   -3.370006   -1.147327
     31          6           0       -2.081283   -2.689463   -0.823540
     32          6           0       -5.803898   -2.537903   -1.305708
     33          6           0       -3.243539   -4.730213   -1.495121
     34          6           0       -4.372583   -5.641063   -1.608170
     35          6           0        0.386594   -2.674491   -0.310798
     36          6           0        1.561755   -3.346358    0.007574
     37          6           0        2.492876   -2.359327    0.311845
     38          6           0        1.822870   -1.148872    0.125681
     39          6           0        1.791772   -4.856468    0.042469
     40          6           0        3.942816   -2.580067    0.758586
     41          6           0        4.888832   -2.468632   -0.450974
     42          6           0        6.391922   -2.604927   -0.194777
     43          8           0        7.179174   -2.359866   -1.100477
     44          8           0        6.819906   -2.981318    0.887415
     45          7           0        0.462929    1.587215    0.096200
     46          7           0       -2.442756    1.507079   -0.461354
     47          7           0       -2.325429   -1.382439   -0.662826
     48          7           0        0.536861   -1.348065   -0.177235
     49         26           0       -0.919930    0.118914   -0.308527
     50          8           0       -0.656781    0.333733   -2.291856
     51          1           0        6.726276   -2.421502    1.661650
     52          1           0        4.608620   -3.224949   -1.154085
     53          1           0        4.721689   -1.515784   -0.908188
     54          1           0        4.206885   -1.840114    1.484972
     55          1           0        4.035903   -3.553290    1.193410
     56          1           0        1.281055   -5.275686    0.884089
     57          1           0        1.415596   -5.295446   -0.857914
     58          1           0        2.839744   -5.055795    0.125669
     59          1           0        3.440246    0.149832    0.425735
     60          1           0        4.124307    3.744655    0.756432
     61          1           0        4.344019    2.026078    0.876833
     62          1           0        4.314543    3.637839   -1.665533
     63          1           0        4.429372    1.895312   -1.600510
     64          1           0        7.654648    1.789349   -0.680428
     65          1           0        1.883754    5.432915    1.061804
     66          1           0        2.428212    5.368518   -0.597257
     67          1           0        0.730222    5.578423   -0.242519
     68          1           0       -1.026681    4.525892   -0.299330
     69          1           0       -3.275306    5.404981    0.576675
     70          1           0       -3.048423    5.465803   -1.154767
     71          1           0       -4.655628    5.300204   -0.489533
     72          1           0       -6.437497    1.671683   -0.556372
     73          1           0       -6.663311    4.483009   -0.716114
     74          1           0       -7.493651    3.607801    0.547853
     75          1           0       -5.387508   -0.041667   -0.592995
     76          1           0       -6.275967   -1.604403   -1.080703
     77          1           0       -5.951890   -2.772471   -2.339137
     78          1           0       -6.231953   -3.309172   -0.700057
     79          1           0       -5.269556   -5.135005   -1.317923
     80          1           0       -4.462529   -5.973600   -2.621200
     81          1           0       -2.282537   -5.151726   -1.704173
     82          1           0       -0.771004   -4.334996   -0.840013
     83          1           0       -0.422503   -2.093735    2.222332
     84          1           0       -2.323506    1.590393    1.915896
     85          1           0       -2.657005    0.721574    4.253992
     86          1           0       -2.022791   -1.415737    5.734248
     87          1           0       -1.710997   -2.807171    4.724415
     88          1           0       -0.383925   -1.814395    5.277898
     89          1           0       -0.499559    1.179010   -1.864787
     90          1           0       -0.115341    0.268774   -3.081934
 ---------------------------------------------------------------------

 SCF Done:  E(UPBE1PBE) =  -3438.34131248     A.U. after  127 cycles

 Alpha virt. eigenvalues --    0.62043   0.62360   0.62640   0.62994   0.63239
 Alpha virt. eigenvalues --    0.63384   0.63561   0.63962   0.64200   0.64598
 Alpha virt. eigenvalues --    0.64813   0.65230   0.65672   0.65714   0.66302

  Beta  occ. eigenvalues -- -256.54289 -30.30514 -26.13662 -26.13307 -26.12653
  Beta  occ. eigenvalues --  -19.36424 -19.33015 -19.32789 -19.24774 -19.23700
  Beta  occ. eigenvalues --  -14.57108 -14.53201 -14.50245 -14.49822 -14.49474
  Beta  occ. eigenvalues --  -14.49244 -10.42181 -10.41436 -10.39808 -10.37806
  Beta  occ. eigenvalues --  -10.36409 -10.36210 -10.36104 -10.36026 -10.35953
  Beta  occ. eigenvalues --  -10.35899 -10.35877 -10.35707 -10.35176 -10.34921
  Beta  occ. eigenvalues --  -10.34068 -10.33943 -10.33916 -10.33776 -10.33757
  Beta  occ. eigenvalues --  -10.33447 -10.33345 -10.33272 -10.33176 -10.33170
  Beta  occ. eigenvalues --  -10.33160 -10.33156 -10.32922 -10.32792 -10.32609
  Beta  occ. eigenvalues --  -10.32065 -10.31517 -10.31503 -10.31467 -10.31042
  Beta  occ. eigenvalues --  -10.30957 -10.30905 -10.30857 -10.29717  -3.63048
  Beta  occ. eigenvalues --   -2.38823  -2.38163  -2.37386  -1.25659  -1.25585
  Beta  occ. eigenvalues --   -1.20740  -1.20578  -1.12825  -1.12012  -1.11420
  Beta  occ. eigenvalues --   -1.10696  -1.10612  -1.09869  -1.05566  -0.95640
  Beta  occ. eigenvalues --   -0.94115  -0.93873  -0.93744  -0.93336  -0.92929
  Beta  occ. eigenvalues --   -0.92799  -0.92260  -0.89724  -0.88709  -0.87627
  Beta  occ. eigenvalues --   -0.86803  -0.85800  -0.84100  -0.83910  -0.82802
  Beta  occ. eigenvalues --   -0.82016  -0.81536  -0.80817  -0.79445  -0.78585
  Beta  occ. eigenvalues --   -0.78002  -0.77764  -0.77544  -0.75468  -0.75048
  Beta  occ. eigenvalues --   -0.74086  -0.73282  -0.72957  -0.72113  -0.70520
  Beta  occ. eigenvalues --   -0.70409  -0.69027  -0.67970  -0.66774  -0.65775
  Beta  occ. eigenvalues --   -0.64726  -0.64023  -0.63832  -0.63581  -0.62160
  Beta  occ. eigenvalues --   -0.61622  -0.60805  -0.60525  -0.60346  -0.59987
  Beta  occ. eigenvalues --   -0.59507  -0.59472  -0.58838  -0.58148  -0.57691
  Beta  occ. eigenvalues --   -0.57452  -0.57023  -0.56260  -0.56160  -0.55848
  Beta  occ. eigenvalues --   -0.55466  -0.55379  -0.54933  -0.54613  -0.54453
  Beta  occ. eigenvalues --   -0.54184  -0.54091  -0.53780  -0.53616  -0.53316
  Beta  occ. eigenvalues --   -0.53105  -0.52565  -0.52362  -0.52116  -0.52023
  Beta  occ. eigenvalues --   -0.51976  -0.51726  -0.51318  -0.51032  -0.50927
  Beta  occ. eigenvalues --   -0.50650  -0.50439  -0.50054  -0.49586  -0.49213
  Beta  occ. eigenvalues --   -0.48988  -0.48779  -0.48506  -0.48450  -0.48225
  Beta  occ. eigenvalues --   -0.48096  -0.48025  -0.47674  -0.47371  -0.47051
  Beta  occ. eigenvalues --   -0.46991  -0.46335  -0.45926  -0.45265  -0.44541
  Beta  occ. eigenvalues --   -0.44047  -0.43683  -0.43407  -0.42904  -0.42508
  Beta  occ. eigenvalues --   -0.41328  -0.40907  -0.40736  -0.40560  -0.40176
  Beta  occ. eigenvalues --   -0.39383  -0.38958  -0.38253  -0.35924  -0.35641
  Beta  occ. eigenvalues --   -0.35277  -0.34424  -0.34135  -0.33027  -0.31021
  Beta  occ. eigenvalues --   -0.30658  -0.28708
  Beta virt. eigenvalues --   -0.21276  -0.19482  -0.18508  -0.17316  -0.15792
  Beta virt. eigenvalues --   -0.15341  -0.13878  -0.10739  -0.09279  -0.08517
  Beta virt. eigenvalues --   -0.07996  -0.06903  -0.06838  -0.06631  -0.06535

 Mulliken charges and spin densities:
               1          2
     1  C   -0.344235  -0.000919
     2  C    0.099328   0.000589
     3  N   -0.185678   0.000005
     4  C   -0.170759  -0.004313
     5  C    0.027748   0.007511
     6  N    0.066259  -0.042480
     7  C   -0.490085   0.007886
     8  C   -0.468404  -0.137000
     9  C   -0.486125  -0.033087
    10  C   -0.448623   0.058884
    11  C    0.303292  -0.010508
    12  C    0.060194   0.030650
    13  C   -0.130089  -0.013704
    14  C    0.340890   0.054318
    15  C   -0.373317   0.000158
    16  C   -0.420130  -0.003666
    17  C   -0.123815   0.001706
    18  C    0.226183   0.000156
    19  O   -0.355247   0.000030
    20  O   -0.300465  -0.000005
    21  C    0.248344   0.091374
    22  C   -0.130753  -0.278268
    23  C   -0.004295   0.206277
    24  C    0.235792  -0.024082
    25  C   -0.337448   0.019645
    26  C   -0.101040  -0.645938
    27  C   -0.327520   0.866297
    28  C    0.358061   0.028758
    29  C   -0.142811  -0.113594
    30  C    0.040108   0.096868
    31  C    0.289204  -0.046790
    32  C   -0.352062   0.007487
    33  C   -0.141478  -0.216570
    34  C   -0.287396   0.289444
    35  C    0.194605  -0.032988
    36  C   -0.074483   0.005393
    37  C    0.042058  -0.014167
    38  C    0.241260  -0.011207
    39  C   -0.382634  -0.000451
    40  C   -0.363743   0.001060
    41  C   -0.251597  -0.000745
    42  C    0.261845  -0.000137
    43  O   -0.313482  -0.000147
    44  O   -0.296324  -0.000009
    45  N   -0.088167  -0.062852
    46  N   -0.083466  -0.105620
    47  N   -0.064924  -0.052243
    48  N   -0.044118  -0.017853
    49  Fe  -0.190337   1.153857
    50  O   -0.455292  -0.016255
    51  H    0.348943  -0.000016
    52  H    0.146704   0.000027
    53  H    0.142794   0.000030
    54  H    0.127306  -0.000195
    55  H    0.153233  -0.000261
    56  H    0.156293   0.000098
    57  H    0.148832   0.000190
    58  H    0.142845  -0.000032
    59  H    0.119462  -0.000338
    60  H    0.159996   0.000320
    61  H    0.126623   0.000522
    62  H    0.134375  -0.000079
    63  H    0.119329  -0.000146
    64  H    0.363102   0.000047
    65  H    0.160687  -0.000013
    66  H    0.154677  -0.000049
    67  H    0.133394  -0.000155
    68  H    0.126405   0.005663
    69  H    0.150006  -0.011921
    70  H    0.148788  -0.004506
    71  H    0.148670  -0.004046
    72  H    0.148481   0.046985
    73  H    0.170060  -0.031562
    74  H    0.144330  -0.026640
    75  H    0.089896   0.000055
    76  H    0.121727  -0.000005
    77  H    0.165328  -0.004843
    78  H    0.157449  -0.003204
    79  H    0.104991  -0.008496
    80  H    0.157762  -0.011744
    81  H    0.123046   0.011633
    82  H    0.117467  -0.003165
    83  H    0.163576   0.000251
    84  H    0.196419   0.000087
    85  H    0.251236   0.000224
    86  H    0.139183  -0.000223
    87  H    0.163121   0.000129
    88  H    0.160333   0.000143
    89  H    0.347224  -0.000677
    90  H    0.361079   0.003158
 Sum of Mulliken charges =   1.00000   1.00000

 Dipole moment (field-independent basis, Debye):
    X=             -8.4960    Y=              0.7013    Z=              5.9292  Tot=             10.3841
 Quadrupole moment (field-independent basis, Debye-Ang):
   XX=           -257.5296   YY=           -263.0135   ZZ=           -248.3598
   XY=            -19.6445   XZ=             12.8775   YZ=             -9.4075

 Summary of Natural Population Analysis:

                                       Natural Population
                Natural  -----------------------------------------------
    Atom  No    Charge         Core      Valence    Rydberg      Total
 -----------------------------------------------------------------------
      C    1   -0.31835      0.99969     2.31573    0.00293     3.31835
      C    2    0.06474      0.99958     1.92630    0.00937     2.93526
      N    3   -0.22474      0.99964     2.71463    0.01047     3.72474
      C    4   -0.03328      0.99951     2.02382    0.00995     3.03328
      C    5    0.09164      0.99966     1.89772    0.01098     2.90836
      N    6   -0.18134      0.99963     2.65669    0.02502     3.68134
      C    7   -0.09435      0.99956     2.08657    0.00822     3.09435
      C    8   -0.16168      0.99956     2.15415    0.00796     3.16168
      C    9   -0.10754      0.99955     2.10049    0.00751     3.10754
      C   10   -0.06755      0.99954     2.06047    0.00754     3.06755
      C   11    0.06631      0.99947     1.92330    0.01092     2.93369
      C   12    0.00969      0.99943     1.98159    0.00929     2.99031
      C   13   -0.00484      0.99942     1.99719    0.00822     3.00484
      C   14    0.07900      0.99947     1.91073    0.01079     2.92100
      C   15   -0.31741      0.99970     2.31399    0.00372     3.31741
      C   16   -0.20943      0.99966     2.20272    0.00704     3.20943
      C   17   -0.24436      0.99963     2.23642    0.00831     3.24436
      C   18    0.37998      0.99977     1.60036    0.01988     2.62002
      O   19   -0.30289      0.99988     3.28996    0.01304     4.30289
      O   20   -0.32164      0.99978     3.30689    0.01497     4.32164
      C   21    0.08793      0.99948     1.90207    0.01052     2.91207
      C   22   -0.11217      0.99945     2.10400    0.00872     3.11217
      C   23    0.00863      0.99945     1.98184    0.01007     2.99137
      C   24    0.07529      0.99950     1.91394    0.01128     2.92471
      C   25   -0.31530      0.99969     2.31153    0.00408     3.31530
      C   26   -0.34332      0.99962     2.33632    0.00737     3.34332
      C   27    0.24113      0.99931     1.75391    0.00564     2.75887
      C   28    0.07563      0.99947     1.91412    0.01078     2.92437
      C   29   -0.02884      0.99944     2.02095    0.00844     3.02884
      C   30   -0.02468      0.99945     2.01528    0.00995     3.02468
      C   31    0.06728      0.99950     1.92266    0.01056     2.93272
      C   32   -0.31445      0.99969     2.31076    0.00400     3.31445
      C   33   -0.15666      0.99965     2.14982    0.00719     3.15666
      C   34   -0.06823      0.99946     2.05907    0.00971     3.06823
      C   35    0.04659      0.99947     1.94340    0.01054     2.95341
      C   36    0.00121      0.99943     1.99126    0.00810     2.99879
      C   37   -0.01731      0.99943     2.00821    0.00967     3.01731
      C   38    0.06351      0.99948     1.92644    0.01057     2.93649
      C   39   -0.31945      0.99970     2.31609    0.00366     3.31945
      C   40   -0.21737      0.99967     2.21007    0.00762     3.21737
      C   41   -0.25746      0.99963     2.24931    0.00851     3.25746
      C   42    0.38052      0.99976     1.60086    0.01886     2.61948
      O   43   -0.27353      0.99988     3.26095    0.01270     4.27353
      O   44   -0.33114      0.99977     3.31519    0.01617     4.33114
      N   45   -0.23108      0.99961     2.70844    0.02302     3.73108
      N   46   -0.25235      0.99964     2.72722    0.02548     3.75235
      N   47   -0.20658      0.99963     2.68344    0.02351     3.70658
      N   48   -0.20365      0.99963     2.67821    0.02580     3.70365
     Fe   49    0.79482      8.99613     3.18467    0.02438    12.20518
      O   50   -0.40498      0.99990     3.39454    0.01053     4.40498
      H   51    0.25535      0.00000     0.24355    0.00110     0.24465
      H   52    0.12226      0.00000     0.37710    0.00064     0.37774
      H   53    0.11606      0.00000     0.38327    0.00067     0.38394
      H   54    0.10456      0.00000     0.39460    0.00085     0.39544
      H   55    0.11503      0.00000     0.38424    0.00073     0.38497
      H   56    0.11535      0.00000     0.38394    0.00071     0.38465
      H   57    0.11537      0.00000     0.38398    0.00065     0.38463
      H   58    0.11356      0.00000     0.38579    0.00065     0.38644
      H   59    0.10685      0.00000     0.39182    0.00133     0.39315
      H   60    0.12345      0.00000     0.37573    0.00082     0.37655
      H   61    0.10653      0.00000     0.39268    0.00078     0.39347
      H   62    0.11870      0.00000     0.38065    0.00066     0.38130
      H   63    0.10814      0.00000     0.39115    0.00071     0.39186
      H   64    0.26077      0.00000     0.23788    0.00135     0.23923
      H   65    0.11820      0.00000     0.38109    0.00071     0.38180
      H   66    0.11738      0.00000     0.38192    0.00070     0.38262
      H   67    0.10997      0.00000     0.38946    0.00057     0.39003
      H   68    0.11393      0.00000     0.38463    0.00143     0.38607
      H   69    0.10992      0.00000     0.38917    0.00092     0.39008
      H   70    0.11295      0.00000     0.38631    0.00074     0.38705
      H   71    0.12030      0.00000     0.37888    0.00083     0.37970
      H   72    0.11972      0.00000     0.37949    0.00079     0.38028
      H   73    0.08177      0.00000     0.41694    0.00129     0.41823
      H   74    0.07777      0.00000     0.42145    0.00078     0.42223
      H   75    0.10754      0.00000     0.39081    0.00165     0.39246
      H   76    0.10732      0.00000     0.39210    0.00059     0.39268
      H   77    0.11854      0.00000     0.38061    0.00085     0.38146
      H   78    0.11476      0.00000     0.38448    0.00076     0.38524
      H   79    0.08180      0.00000     0.41737    0.00083     0.41820
      H   80    0.10376      0.00000     0.39542    0.00082     0.39624
      H   81    0.10112      0.00000     0.39796    0.00092     0.39888
      H   82    0.11038      0.00000     0.38829    0.00132     0.38962
      H   83    0.11688      0.00000     0.38238    0.00074     0.38312
      H   84    0.11788      0.00000     0.38133    0.00080     0.38212
      H   85    0.21577      0.00000     0.28350    0.00073     0.28423
      H   86    0.11312      0.00000     0.38632    0.00056     0.38688
      H   87    0.12093      0.00000     0.37856    0.00051     0.37907
      H   88    0.11932      0.00000     0.38012    0.00055     0.38068
      H   89    0.25632      0.00000     0.24213    0.00155     0.24368
      H   90    0.26471      0.00000     0.23411    0.00118     0.23529
 =======================================================================
   * Total *    1.00000     57.97610   128.42554    0.59836   187.00000

 Normal termination of Gaussian 16 at Sat Sep 10 07:10:31 2022.
