 Gaussian 16, Revision A.03,
 Gaussian 16:  ES64L-G16RevA.03 25-Dec-2016

 ----------------------------------------------------------------------
 # PBE1PBE/def2TZVP empiricaldispersion=GD3BJ scf=maxcycle=999 geom=che
 ck pop=nbo guess=read
 ----------------------------------------------------------------------

 ---------
 1fhf_II_Q
 ---------
 Structure from the checkpoint file:  "1fhf_II_Q.chk"
 Charge =  0 Multiplicity = 5

                         Standard orientation:
 ---------------------------------------------------------------------
 Center     Atomic      Atomic             Coordinates (Angstroms)
 Number     Number       Type             X           Y           Z
 ---------------------------------------------------------------------
      1          6           0        1.574455    1.471442    5.288724
      2          6           0        1.478990    0.546920    4.091458
      3          7           0        1.923798   -0.780184    4.063819
      4          6           0        0.987139    0.908072    2.818344
      5          6           0        1.735495   -1.143950    2.750388
      6          7           0        1.208323   -0.206906    1.964709
      7          6           0       -2.526192    0.021684    0.217951
      8          6           0        0.745288   -3.574735   -0.267713
      9          6           0        4.285837   -0.286277   -0.862747
     10          6           0        1.060043    3.309501   -0.327218
     11          6           0       -1.962654   -1.248221    0.007234
     12          6           0       -2.747564   -2.536535    0.095671
     13          6           0       -1.799014   -3.529013   -0.044134
     14          6           0       -0.460496   -2.868148   -0.149965
     15          6           0       -2.058203   -5.046150   -0.071571
     16          6           0       -4.201906   -2.705018    0.639728
     17          6           0       -5.247258   -3.791751    0.294099
     18          6           0       -6.293227   -3.330954   -0.726464
     19          8           0       -6.867937   -2.237520   -0.545982
     20          8           0       -6.553513   -4.061824   -1.707278
     21          6           0        1.997533   -2.985463   -0.438172
     22          6           0        3.270645   -3.743646   -0.427193
     23          6           0        4.278133   -2.820638   -0.599353
     24          6           0        3.615894   -1.487770   -0.688674
     25          6           0        3.481572   -5.252671   -0.222994
     26          6           0        5.623445   -3.187713   -0.738130
     27          6           0        6.727166   -2.323102   -0.101069
     28          6           0        3.681894    0.956685   -0.861822
     29          6           0        4.384402    2.173846   -1.246275
     30          6           0        3.476134    3.187106   -1.157484
     31          6           0        2.219063    2.588805   -0.660039
     32          6           0        5.830301    2.288894   -1.724444
     33          6           0        3.676373    4.515237   -1.542431
     34          6           0        4.888638    5.298291   -1.004995
     35          6           0       -0.171354    2.710525   -0.008698
     36          6           0       -1.391958    3.433633    0.332542
     37          6           0       -2.389602    2.508832    0.460465
     38          6           0       -1.787427    1.211591    0.257239
     39          6           0       -1.518515    4.936155    0.541177
     40          6           0       -3.894104    2.757666    0.625123
     41          6           0       -4.478596    3.641028   -0.473852
     42          6           0       -5.986715    3.728601   -0.415519
     43          8           0       -6.524449    3.884452    0.699027
     44          8           0       -6.630647    3.652867   -1.482189
     45          7           0       -0.549766   -1.463686   -0.137979
     46          7           0        2.209905   -1.589673   -0.531478
     47          7           0        2.329562    1.186071   -0.573896
     48          7           0       -0.398483    1.313698   -0.003540
     49         26           0        0.910840   -0.139844   -0.257081
     50          1           0        1.995385   -2.115287    2.384519
     51          1           0        2.289178   -1.329601    4.815243
     52          1           0        0.535663    1.839861    2.548459
     53          1           0        0.984291    2.346255    5.111778
     54          1           0        1.211312    0.966297    6.159273
     55          1           0        2.595153    1.754441    5.440331
     56          1           0       -6.710018   -3.670121   -2.569644
     57          1           0       -4.736066   -4.644486   -0.101408
     58          1           0       -5.750617   -4.080290    1.193141
     59          1           0       -4.090160   -2.762809    1.702307
     60          1           0       -4.686743   -1.778671    0.412324
     61          1           0       -1.858315   -5.424455   -1.052301
     62          1           0       -1.416992   -5.530366    0.635030
     63          1           0       -3.079462   -5.238182    0.183486
     64          1           0       -3.585291    0.083825    0.357042
     65          1           0       -4.401266    1.815553    0.614674
     66          1           0       -4.062857    3.228964    1.570798
     67          1           0       -4.193154    3.242157   -1.424812
     68          1           0       -4.072252    4.626089   -0.376702
     69          1           0       -6.555520    4.349246   -2.138703
     70          1           0       -2.152433    5.349162   -0.215442
     71          1           0       -1.941836    5.128009    1.504967
     72          1           0       -0.550235    5.387455    0.480662
     73          1           0        1.117884    4.377872   -0.315437
     74          1           0        5.950575    3.194106   -2.282142
     75          1           0        6.485725    2.301231   -0.878769
     76          1           0        6.067605    1.451949   -2.347429
     77          1           0        5.345246   -0.324217   -1.008051
     78          1           0        3.964896   -5.664974   -1.083984
     79          1           0        4.092659   -5.413770    0.640441
     80          1           0        2.533969   -5.729576   -0.083313
     81          1           0        0.701117   -4.642911   -0.223565
     82          7           0        0.273493    0.160536   -2.097839
     83          6           0        0.456961    0.068650   -3.364113
     84          1           0        0.849630   -0.122781   -4.340876
     85          1           0        5.883763   -4.068724   -1.286725
     86          1           0        7.084780   -1.452134   -0.609427
     87          1           0        7.136425   -2.593334    0.849921
     88          1           0        2.987428    4.988262   -2.210641
     89          1           0        5.282130    6.123181   -1.561431
     90          1           0        5.337435    5.017472   -0.075144
 ---------------------------------------------------------------------

 SCF Done:  E(UPBE1PBE) =  -3455.45553160     A.U. after   51 cycles

 Alpha virt. eigenvalues --    0.76653   0.76864   0.77356   0.77676   0.77845
 Alpha virt. eigenvalues --    0.78350   0.78678   0.78899   0.79186   0.79303
 Alpha virt. eigenvalues --    0.79514   0.79816   0.79967   0.80287   0.80587

  Beta  occ. eigenvalues -- -256.32280 -30.07185 -25.90814 -25.90404 -25.88978
  Beta  occ. eigenvalues --  -19.26413 -19.25287 -19.17609 -19.17536 -14.44941
  Beta  occ. eigenvalues --  -14.42474 -14.38320 -14.37967 -14.37747 -14.37716
  Beta  occ. eigenvalues --  -14.36625 -10.35313 -10.34622 -10.28843 -10.28129
  Beta  occ. eigenvalues --  -10.26735 -10.25465 -10.25324 -10.25202 -10.25195
  Beta  occ. eigenvalues --  -10.25034 -10.24716 -10.24210 -10.24205 -10.24101
  Beta  occ. eigenvalues --  -10.23827 -10.23716 -10.23360 -10.23224 -10.22933
  Beta  occ. eigenvalues --  -10.22928 -10.22699 -10.22667 -10.22598 -10.22558
  Beta  occ. eigenvalues --  -10.22558 -10.22403 -10.22291 -10.21943 -10.21877
  Beta  occ. eigenvalues --  -10.21806 -10.21687 -10.21642 -10.21541 -10.21498
  Beta  occ. eigenvalues --  -10.21461 -10.21388 -10.21040 -10.20991 -10.20584
  Beta  occ. eigenvalues --   -3.39502  -2.16351  -2.15714  -2.11772  -1.17102
  Beta  occ. eigenvalues --   -1.16345  -1.03435  -1.02391  -1.02380  -0.95870
  Beta  occ. eigenvalues --   -0.94652  -0.94481  -0.93239  -0.89863  -0.89171
  Beta  occ. eigenvalues --   -0.82932  -0.82649  -0.82367  -0.81981  -0.81695
  Beta  occ. eigenvalues --   -0.79861  -0.79729  -0.79372  -0.78560  -0.77954
  Beta  occ. eigenvalues --   -0.75470  -0.74306  -0.74277  -0.73188  -0.72402
  Beta  occ. eigenvalues --   -0.71010  -0.70493  -0.70174  -0.69785  -0.69195
  Beta  occ. eigenvalues --   -0.68362  -0.65762  -0.65190  -0.64270  -0.64204
  Beta  occ. eigenvalues --   -0.63907  -0.62116  -0.61465  -0.61095  -0.60864
  Beta  occ. eigenvalues --   -0.58042  -0.56411  -0.54991  -0.54609  -0.53983
  Beta  occ. eigenvalues --   -0.53722  -0.52997  -0.52700  -0.52092  -0.51485
  Beta  occ. eigenvalues --   -0.51043  -0.50604  -0.50033  -0.49963  -0.49297
  Beta  occ. eigenvalues --   -0.48404  -0.47861  -0.47508  -0.47327  -0.47078
  Beta  occ. eigenvalues --   -0.46715  -0.46511  -0.45918  -0.45363  -0.44870
  Beta  occ. eigenvalues --   -0.44549  -0.44484  -0.43975  -0.43813  -0.43575
  Beta  occ. eigenvalues --   -0.43411  -0.43178  -0.42913  -0.42676  -0.42498
  Beta  occ. eigenvalues --   -0.42275  -0.42152  -0.41877  -0.41837  -0.41267
  Beta  occ. eigenvalues --   -0.41199  -0.40925  -0.40706  -0.40537  -0.39917
  Beta  occ. eigenvalues --   -0.39734  -0.39292  -0.39195  -0.39022  -0.38685
  Beta  occ. eigenvalues --   -0.38543  -0.38191  -0.37681  -0.37573  -0.37120
  Beta  occ. eigenvalues --   -0.36819  -0.36522  -0.36332  -0.36107  -0.35609
  Beta  occ. eigenvalues --   -0.35477  -0.34901  -0.34368  -0.34228  -0.33979
  Beta  occ. eigenvalues --   -0.33723  -0.32582  -0.32409  -0.32335  -0.32082
  Beta  occ. eigenvalues --   -0.31715  -0.31033  -0.30431  -0.29851  -0.27843
  Beta  occ. eigenvalues --   -0.27499  -0.27333  -0.27147  -0.25782  -0.25280
  Beta  occ. eigenvalues --   -0.23844  -0.23069  -0.22986  -0.22157  -0.20033
  Beta  occ. eigenvalues --   -0.18680  -0.18054  -0.16461
  Beta virt. eigenvalues --   -0.08725  -0.06956  -0.05286  -0.04302  -0.03505
  Beta virt. eigenvalues --   -0.02986  -0.00929  -0.00725  -0.00404   0.00347
  Beta virt. eigenvalues --    0.00939   0.02240   0.02645   0.03100   0.03307

 Mulliken charges and spin densities:
               1          2
     1  C   -0.383325   0.000567
     2  C    0.130278   0.001428
     3  N   -0.230194   0.000889
     4  C   -0.171603   0.000665
     5  C    0.027613   0.003192
     6  N   -0.105134   0.019018
     7  C   -0.422641   0.031483
     8  C   -0.505903   0.069437
     9  C   -0.437651  -0.019113
    10  C   -0.491152  -0.061316
    11  C    0.217877  -0.034075
    12  C   -0.179642   0.001677
    13  C   -0.055630  -0.009775
    14  C    0.236663  -0.032487
    15  C   -0.403524   0.000743
    16  C   -0.202826   0.000593
    17  C   -0.092064  -0.000108
    18  C    0.227282   0.000026
    19  O   -0.363125   0.000001
    20  O   -0.331862   0.000000
    21  C    0.247339  -0.058120
    22  C   -0.092306   0.258753
    23  C    0.054012  -0.197265
    24  C    0.232976   0.050923
    25  C   -0.397110  -0.016943
    26  C   -0.210696   0.813012
    27  C   -0.294656   1.051907
    28  C    0.243365   0.001841
    29  C   -0.095937   0.044503
    30  C    0.080754  -0.030464
    31  C    0.200226   0.060253
    32  C   -0.376745  -0.002784
    33  C   -0.292172   0.042816
    34  C   -0.316947  -0.053752
    35  C    0.244477   0.058528
    36  C   -0.059832  -0.032639
    37  C    0.006603   0.046735
    38  C    0.272154  -0.024009
    39  C   -0.399720   0.001989
    40  C   -0.314220  -0.004260
    41  C   -0.218796   0.001926
    42  C    0.309115   0.000221
    43  O   -0.344127   0.000179
    44  O   -0.337244   0.000071
    45  N    0.024016   0.014750
    46  N   -0.045530   0.011259
    47  N    0.029649  -0.060267
    48  N   -0.034451  -0.028418
    49  Fe  -0.133663   2.000056
    50  H    0.151799   0.000126
    51  H    0.241950   0.001453
    52  H    0.151008   0.000186
    53  H    0.144886   0.000019
    54  H    0.125848   0.000053
    55  H    0.138701   0.000087
    56  H    0.352637   0.000004
    57  H    0.076605   0.000001
    58  H    0.131365  -0.000003
    59  H    0.129248  -0.000130
    60  H    0.149354   0.000003
    61  H    0.143619  -0.000565
    62  H    0.126842  -0.000305
    63  H    0.123033  -0.000025
    64  H    0.116499  -0.001787
    65  H    0.113556   0.000125
    66  H    0.131615   0.001254
    67  H    0.119677  -0.000239
    68  H    0.109652  -0.000153
    69  H    0.350003  -0.000009
    70  H    0.127524  -0.000910
    71  H    0.140980  -0.000817
    72  H    0.129819  -0.000112
    73  H    0.113864   0.002817
    74  H    0.151883   0.000375
    75  H    0.134701   0.001961
    76  H    0.128841   0.000541
    77  H    0.082781  -0.000664
    78  H    0.136214   0.008117
    79  H    0.138111   0.009789
    80  H    0.124406   0.000776
    81  H    0.106805  -0.003437
    82  N   -0.047667  -0.035770
    83  C   -0.087731   0.133101
    84  H    0.214194   0.013788
    85  H    0.138699  -0.016707
    86  H    0.141331  -0.016787
    87  H    0.139719  -0.021189
    88  H    0.133750  -0.003231
    89  H    0.138128   0.002079
    90  H    0.141780   0.002544
 Sum of Mulliken charges =  -0.00000   4.00000

 Dipole moment (field-independent basis, Debye):
    X=              4.3979    Y=             -2.7830    Z=             -1.0560  Tot=              5.3105
 Quadrupole moment (field-independent basis, Debye-Ang):
   XX=           -331.7959   YY=           -271.9091   ZZ=           -255.0986
   XY=              3.3421   XZ=             35.9087   YZ=            -15.2921

 Summary of Natural Population Analysis:

                                       Natural Population
                Natural  -----------------------------------------------
    Atom  No    Charge         Core      Valence    Rydberg      Total
 -----------------------------------------------------------------------
      C    1   -0.32005      0.99969     2.31716    0.00321     3.32005
      C    2    0.05595      0.99963     1.93677    0.00764     2.94405
      N    3   -0.25753      0.99971     2.74836    0.00946     3.75753
      C    4   -0.04221      0.99954     2.03347    0.00921     3.04221
      C    5    0.09929      0.99970     1.89173    0.00927     2.90071
      N    6   -0.17411      0.99975     2.65385    0.02051     3.67411
      C    7   -0.10019      0.99949     2.09281    0.00790     3.10019
      C    8   -0.10436      0.99949     2.09686    0.00801     3.10436
      C    9   -0.13194      0.99947     2.12399    0.00848     3.13194
      C   10   -0.14953      0.99950     2.14204    0.00799     3.14953
      C   11    0.06127      0.99954     1.92950    0.00969     2.93873
      C   12   -0.01330      0.99940     2.00519    0.00870     3.01330
      C   13   -0.02107      0.99946     2.01373    0.00788     3.02107
      C   14    0.06975      0.99955     1.92043    0.01027     2.93025
      C   15   -0.31776      0.99969     2.31445    0.00363     3.31776
      C   16   -0.21480      0.99961     2.20830    0.00689     3.21480
      C   17   -0.24881      0.99961     2.24109    0.00811     3.24881
      C   18    0.38415      0.99978     1.59774    0.01833     2.61585
      O   19   -0.30274      0.99989     3.29067    0.01218     4.30274
      O   20   -0.32971      0.99980     3.31618    0.01372     4.32971
      C   21    0.05756      0.99953     1.93282    0.01008     2.94244
      C   22    0.11885      0.99946     1.87358    0.00812     2.88115
      C   23   -0.12509      0.99943     2.11595    0.00971     3.12509
      C   24    0.11262      0.99953     1.87818    0.00967     2.88738
      C   25   -0.32514      0.99969     2.32185    0.00360     3.32514
      C   26    0.27911      0.99960     1.71366    0.00762     2.72089
      C   27    0.34311      0.99977     1.65362    0.00350     2.65689
      C   28    0.06620      0.99951     1.92423    0.01006     2.93380
      C   29    0.03756      0.99944     1.95445    0.00855     2.96244
      C   30   -0.08976      0.99943     2.07904    0.01129     3.08976
      C   31    0.12156      0.99956     1.86875    0.01012     2.87844
      C   32   -0.32408      0.99969     2.32076    0.00364     3.32408
      C   33   -0.07202      0.99960     2.06296    0.00946     3.07202
      C   34   -0.22688      0.99975     2.22160    0.00553     3.22688
      C   35    0.10569      0.99953     1.88485    0.00993     2.89431
      C   36   -0.03661      0.99944     2.02891    0.00826     3.03661
      C   37    0.00657      0.99942     1.98455    0.00947     2.99343
      C   38    0.06214      0.99951     1.92866    0.00969     2.93786
      C   39   -0.31697      0.99969     2.31347    0.00381     3.31697
      C   40   -0.20675      0.99966     2.19965    0.00744     3.20675
      C   41   -0.25742      0.99963     2.24920    0.00860     3.25742
      C   42    0.38536      0.99975     1.59722    0.01768     2.61464
      O   43   -0.28257      0.99989     3.27097    0.01171     4.28257
      O   44   -0.33636      0.99979     3.32145    0.01512     4.33636
      N   45   -0.17348      0.99970     2.65253    0.02125     3.67348
      N   46   -0.18793      0.99970     2.67001    0.01822     3.68793
      N   47   -0.20549      0.99969     2.68523    0.02056     3.70549
      N   48   -0.19961      0.99970     2.67943    0.02048     3.69961
     Fe   49    1.08247      8.99268     2.90111    0.02374    11.91753
      H   50    0.10471      0.00000     0.39435    0.00094     0.39529
      H   51    0.21186      0.00000     0.28720    0.00093     0.28814
      H   52    0.11661      0.00000     0.38260    0.00079     0.38339
      H   53    0.11684      0.00000     0.38268    0.00049     0.38316
      H   54    0.10650      0.00000     0.39271    0.00078     0.39350
      H   55    0.10966      0.00000     0.38955    0.00079     0.39034
      H   56    0.25769      0.00000     0.24089    0.00142     0.24231
      H   57    0.10736      0.00000     0.39183    0.00081     0.39264
      H   58    0.12109      0.00000     0.37837    0.00053     0.37891
      H   59    0.11100      0.00000     0.38797    0.00102     0.38900
      H   60    0.12048      0.00000     0.37867    0.00085     0.37952
      H   61    0.11065      0.00000     0.38856    0.00079     0.38935
      H   62    0.10824      0.00000     0.39095    0.00082     0.39176
      H   63    0.10584      0.00000     0.39329    0.00086     0.39416
      H   64    0.10698      0.00000     0.39146    0.00156     0.39302
      H   65    0.10969      0.00000     0.38962    0.00069     0.39031
      H   66    0.11799      0.00000     0.38116    0.00085     0.38201
      H   67    0.10723      0.00000     0.39196    0.00080     0.39277
      H   68    0.11495      0.00000     0.38427    0.00078     0.38505
      H   69    0.25558      0.00000     0.24327    0.00115     0.24442
      H   70    0.10531      0.00000     0.39371    0.00098     0.39469
      H   71    0.11103      0.00000     0.38817    0.00080     0.38897
      H   72    0.10934      0.00000     0.39005    0.00060     0.39066
      H   73    0.11040      0.00000     0.38834    0.00126     0.38960
      H   74    0.11937      0.00000     0.37982    0.00081     0.38063
      H   75    0.11170      0.00000     0.38756    0.00074     0.38830
      H   76    0.10744      0.00000     0.39174    0.00082     0.39256
      H   77    0.10961      0.00000     0.38907    0.00132     0.39039
      H   78    0.11399      0.00000     0.38516    0.00084     0.38601
      H   79    0.11522      0.00000     0.38411    0.00067     0.38478
      H   80    0.10858      0.00000     0.39084    0.00058     0.39142
      H   81    0.10553      0.00000     0.39307    0.00140     0.39447
      N   82   -0.12508      0.99977     2.60462    0.02068     3.62508
      C   83    0.13162      0.99965     1.86105    0.00768     2.86838
      H   84    0.12045      0.00000     0.37877    0.00078     0.37955
      H   85    0.10079      0.00000     0.39825    0.00096     0.39921
      H   86    0.08332      0.00000     0.41601    0.00067     0.41668
      H   87    0.08681      0.00000     0.41257    0.00062     0.41319
      H   88    0.10397      0.00000     0.39504    0.00098     0.39603
      H   89    0.09631      0.00000     0.40293    0.00076     0.40369
      H   90    0.09838      0.00000     0.40085    0.00077     0.40162
 =======================================================================
   * Total *    2.00000     58.97349   128.45611    0.57040   188.00000

 Normal termination of Gaussian 16 at Thu Dec 22 15:12:08 2022.
