 Gaussian 16, Revision A.03,

 ----------------------------------------------------------------------
 # PBE1PBE/def2TZVP empiricaldispersion=GD3BJ int=(grid=ultrafine) geom
 =check pop=nbo
 ----------------------------------------------------------------------

 ----------
 1ccc_III_H
 ----------
 Structure from the checkpoint file:  "1ccc_III_H.chk"
 Charge =  1 Multiplicity = 6

 SCF Done:  E(UPBE1PBE) =  -3438.40865057     A.U. after   46 cycles

 Summary of Natural Population Analysis:

                                       Natural Population
                Natural  -----------------------------------------------
    Atom  No    Charge         Core      Valence    Rydberg      Total
 -----------------------------------------------------------------------
      C    1   -0.31745      0.99969     2.31460    0.00316     3.31745
      C    2    0.06745      0.99955     1.92386    0.00914     2.93255
      N    3   -0.22201      0.99964     2.71223    0.01014     3.72201
      C    4   -0.02759      0.99947     2.01844    0.00969     3.02759
      C    5    0.10593      0.99963     1.88370    0.01074     2.89407
      N    6   -0.16237      0.99967     2.64122    0.02148     3.66237
      H    7    0.21107      0.00000     0.28816    0.00077     0.28893
      C    8   -0.08324      0.99955     2.07594    0.00775     3.08324
      C    9   -0.10645      0.99955     2.09937    0.00752     3.10645
      C   10   -0.10870      0.99954     2.10173    0.00742     3.10870
      C   11   -0.10365      0.99954     2.09669    0.00743     3.10365
      C   12    0.06818      0.99941     1.92231    0.01009     2.93182
      C   13    0.00293      0.99939     1.98821    0.00947     2.99707
      C   14    0.00953      0.99943     1.98284    0.00820     2.99047
      C   15    0.06298      0.99947     1.92755    0.01001     2.93702
      C   16   -0.32039      0.99970     2.31715    0.00354     3.32039
      C   17   -0.20852      0.99965     2.20198    0.00689     3.20852
      C   18   -0.24322      0.99962     2.23525    0.00834     3.24322
      C   19    0.38151      0.99978     1.59876    0.01995     2.61849
      O   20   -0.33103      0.99978     3.31650    0.01476     4.33103
      O   21   -0.29535      0.99988     3.28236    0.01311     4.29535
      C   22    0.06918      0.99950     1.92096    0.01037     2.93082
      C   23    0.02813      0.99947     1.96403    0.00837     2.97187
      C   24   -0.04746      0.99927     2.03532    0.01287     3.04746
      C   25    0.09492      0.99950     1.89462    0.01096     2.90508
      C   26   -0.31821      0.99970     2.31468    0.00383     3.31821
      C   27   -0.08545      0.99964     2.07666    0.00915     3.08545
      C   28   -0.19044      0.99972     2.18428    0.00643     3.19044
      C   29    0.07748      0.99947     1.91319    0.00986     2.92252
      C   30    0.01267      0.99943     1.97938    0.00852     2.98733
      C   31   -0.03343      0.99945     2.02372    0.01026     3.03343
      C   32    0.08509      0.99951     1.90504    0.01037     2.91491
      C   33   -0.31987      0.99969     2.31666    0.00352     3.31987
      C   34   -0.14249      0.99963     2.13343    0.00942     3.14249
      C   35   -0.11044      0.99974     2.10515    0.00555     3.11044
      C   36    0.07032      0.99946     1.91941    0.01081     2.92968
      C   37    0.00789      0.99927     1.98175    0.01109     2.99211
      C   38    0.00606      0.99943     1.98521    0.00930     2.99394
      C   39    0.07231      0.99947     1.91811    0.01011     2.92769
      C   40   -0.31949      0.99970     2.31618    0.00361     3.31949
      C   41   -0.20992      0.99967     2.20271    0.00754     3.20992
      C   42   -0.25583      0.99963     2.24785    0.00836     3.25583
      C   43    0.38345      0.99976     1.59787    0.01893     2.61655
      O   44   -0.32996      0.99976     3.31384    0.01636     4.32996
      O   45   -0.27905      0.99988     3.26649    0.01267     4.27905
      N   46   -0.18448      0.99967     2.66292    0.02188     3.68448
      N   47   -0.18573      0.99966     2.66404    0.02203     3.68573
      N   48   -0.18541      0.99967     2.66383    0.02190     3.68541
      N   49   -0.17895      0.99966     2.65713    0.02217     3.67895
     Fe   50    2.46633      8.99636     1.50330    0.03401    10.53367
      O   51   -0.35583      0.99988     3.34729    0.00866     4.35583
      H   52    0.12063      0.00000     0.37889    0.00048     0.37937
      H   53    0.11411      0.00000     0.38526    0.00063     0.38589
      H   54    0.11598      0.00000     0.38335    0.00067     0.38402
      H   55    0.11646      0.00000     0.38283    0.00072     0.38354
      H   56    0.11762      0.00000     0.38163    0.00076     0.38238
      H   57    0.11417      0.00000     0.38511    0.00073     0.38583
      H   58    0.11341      0.00000     0.38590    0.00070     0.38659
      H   59    0.11467      0.00000     0.38471    0.00063     0.38533
      H   60    0.11489      0.00000     0.38431    0.00080     0.38511
      H   61    0.10872      0.00000     0.39050    0.00078     0.39128
      H   62    0.11626      0.00000     0.38302    0.00072     0.38374
      H   63    0.11115      0.00000     0.38810    0.00075     0.38885
      H   64    0.26181      0.00000     0.23695    0.00125     0.23819
      H   65    0.10910      0.00000     0.38953    0.00137     0.39090
      H   66    0.26554      0.00000     0.23315    0.00131     0.23446
      H   67    0.26863      0.00000     0.23019    0.00118     0.23137
      H   68    0.12021      0.00000     0.37900    0.00079     0.37979
      H   69    0.11166      0.00000     0.38758    0.00076     0.38834
      H   70    0.11466      0.00000     0.38466    0.00068     0.38534
      H   71    0.10760      0.00000     0.39162    0.00079     0.39240
      H   72    0.25876      0.00000     0.24011    0.00113     0.24124
      H   73    0.11514      0.00000     0.38408    0.00078     0.38486
      H   74    0.11747      0.00000     0.38178    0.00075     0.38253
      H   75    0.11008      0.00000     0.38932    0.00060     0.38992
      H   76    0.11107      0.00000     0.38771    0.00122     0.38893
      H   77    0.12096      0.00000     0.37827    0.00077     0.37904
      H   78    0.11551      0.00000     0.38379    0.00070     0.38449
      H   79    0.11188      0.00000     0.38738    0.00074     0.38812
      H   80    0.10199      0.00000     0.39731    0.00070     0.39801
      H   81    0.09726      0.00000     0.40192    0.00082     0.40274
      H   82    0.10834      0.00000     0.39083    0.00083     0.39166
      H   83    0.10858      0.00000     0.38968    0.00174     0.39142
      H   84    0.10587      0.00000     0.39337    0.00076     0.39413
      H   85    0.09961      0.00000     0.39946    0.00093     0.40039
      H   86    0.10217      0.00000     0.39707    0.00076     0.39783
      H   87    0.12004      0.00000     0.37910    0.00086     0.37996
      H   88    0.11592      0.00000     0.38341    0.00067     0.38408
      H   89    0.10878      0.00000     0.39064    0.00058     0.39122
      H   90    0.11238      0.00000     0.38638    0.00124     0.38762
 =======================================================================
   * Total *    3.00004     57.97660   126.43177    0.59160   184.99996

 Normal termination of Gaussian 16 at Fri Jan 27 21:39:28 2023.
 Gaussian 16:  AM64L-G16RevA.03 25-Dec-2016

 ----------------------------------------------------------------------
 # PBE1PBE/def2TZVP empiricaldispersion=GD3BJ int=(grid=ultrafine) geom
 =check guess=read scrf=(smd,solvent=Chloroform)
 ----------------------------------------------------------------------

 ---------------
 1ccc_III_H_solv
 ---------------
 Structure from the checkpoint file:  "1ccc_III_H.chk"
 Charge =  1 Multiplicity = 6

                         Standard orientation:
 ---------------------------------------------------------------------
 Center     Atomic      Atomic             Coordinates (Angstroms)
 Number     Number       Type             X           Y           Z
 ---------------------------------------------------------------------
      1          6           0       -1.569949   -1.838410    4.961434
      2          6           0       -1.479392   -0.895843    3.750616
      3          7           0       -1.693155    0.411778    3.691563
      4          6           0       -1.162440   -1.249704    2.466652
      5          6           0       -1.491293    0.845786    2.471301
      6          7           0       -1.168366   -0.171647    1.718591
      7          1           0       -2.121131    0.949831    4.376849
      8          6           0        2.363359    0.103689    0.237942
      9          6           0       -0.981740    3.544414   -0.259818
     10          6           0       -4.244496    0.084665   -0.644771
     11          6           0       -0.862945   -3.276823   -0.688878
     12          6           0        1.752141    1.363646    0.148080
     13          6           0        2.454817    2.531999    0.156170
     14          6           0        1.492355    3.551874    0.041755
     15          6           0        0.266693    2.918016   -0.082441
     16          6           0        1.707747    5.070714   -0.013430
     17          6           0        3.977852    2.572143    0.241803
     18          6           0        4.707806    2.821643   -1.051435
     19          6           0        6.232571    2.854570   -0.893225
     20          8           0        6.787480    3.798328   -0.347173
     21          8           0        6.943109    1.961180   -1.326830
     22          6           0       -2.241017    2.906098   -0.311552
     23          6           0       -3.487070    3.554977   -0.319243
     24          6           0       -4.429216    2.525371   -0.361342
     25          6           0       -3.690649    1.344435   -0.428095
     26          6           0       -3.679044    5.054793   -0.175876
     27          6           0       -5.832646    2.508679   -0.349091
     28          6           0       -6.747712    3.599106   -0.257492
     29          6           0       -3.640666   -1.168920   -0.768240
     30          6           0       -4.318680   -2.334301   -1.125064
     31          6           0       -3.295330   -3.284463   -1.259688
     32          6           0       -2.107901   -2.663283   -0.841590
     33          6           0       -5.839420   -2.461272   -1.364908
     34          6           0       -3.358381   -4.630509   -1.627580
     35          6           0       -4.512237   -5.519088   -1.568492
     36          6           0        0.351357   -2.680930   -0.354800
     37          6           0        1.495817   -3.361923    0.022047
     38          6           0        2.433591   -2.378155    0.304765
     39          6           0        1.791134   -1.161598    0.078546
     40          6           0        1.721205   -4.853869    0.110569
     41          6           0        3.894296   -2.597839    0.721528
     42          6           0        4.848486   -2.684053   -0.476101
     43          6           0        6.322185   -2.738898   -0.113061
     44          8           0        7.159932   -2.240473   -0.839094
     45          8           0        6.646332   -3.290452    0.924737
     46          7           0        0.432203    1.593744    0.002826
     47          7           0       -2.395877    1.581569   -0.285487
     48          7           0       -2.322517   -1.381173   -0.565956
     49          7           0        0.533194   -1.359426   -0.297990
     50         26           0       -0.955432    0.100357   -0.255377
     51          8           0       -0.710817    0.414192   -2.071370
     52          1           0       -0.939628   -2.687861    4.800098
     53          1           0       -1.251465   -1.319985    5.841606
     54          1           0       -2.581790   -2.163516    5.085460
     55          1           0       -0.945674   -2.241587    2.128896
     56          1           0       -1.576626    1.861783    2.146695
     57          1           0        1.529701    5.420262   -1.008928
     58          1           0        1.029689    5.551814    0.660129
     59          1           0        2.713992    5.298783    0.270042
     60          1           0        4.251353    3.343162    0.931460
     61          1           0        4.312919    1.635882    0.636830
     62          1           0        4.452073    2.047049   -1.743898
     63          1           0        4.384735    3.760007   -1.451432
     64          1           0        7.582380    4.175424   -0.731274
     65          1           0        3.410323    0.112777    0.458589
     66          1           0       -0.994066   -0.188352   -2.762970
     67          1           0       -0.296596    1.184219   -2.467702
     68          1           0        3.959897   -3.507907    1.280430
     69          1           0        4.199766   -1.785638    1.347560
     70          1           0        4.606620   -3.562382   -1.037295
     71          1           0        4.686239   -1.829053   -1.098637
     72          1           0        7.405716   -2.676398   -1.658337
     73          1           0        2.383060   -5.161637   -0.671816
     74          1           0        2.154480   -5.093467    1.059129
     75          1           0        0.785633   -5.362681    0.007060
     76          1           0       -0.838466   -4.334645   -0.847974
     77          1           0       -6.044495   -3.378566   -1.876197
     78          1           0       -6.350507   -2.454929   -0.424881
     79          1           0       -6.176616   -1.638271   -1.959775
     80          1           0       -4.656793   -6.259408   -2.327392
     81          1           0       -5.214736   -5.431083   -0.766214
     82          1           0       -2.451020   -5.060786   -1.996982
     83          1           0       -5.310973    0.075810   -0.731068
     84          1           0       -7.546102    3.688347   -0.964252
     85          1           0       -6.635719    4.327813    0.517972
     86          1           0       -6.280189    1.539244   -0.418379
     87          1           0       -4.097633    5.448676   -1.078394
     88          1           0       -4.341387    5.253143    0.640738
     89          1           0       -2.733355    5.519163    0.011030
     90          1           0       -0.976188    4.609126   -0.365920
 ---------------------------------------------------------------------

 SCF Done:  E(UPBE1PBE) =  -3438.51547088     A.U. after   27 cycles

 Alpha virt. eigenvalues --    0.67689   0.68291   0.68368   0.68621   0.68824
 Alpha virt. eigenvalues --    0.69235   0.69401   0.69608   0.70184   0.70343
 Alpha virt. eigenvalues --    0.70472   0.70920   0.71143   0.71294   0.71798

  Beta  occ. eigenvalues -- -256.48126 -30.21246 -26.04485 -26.04449 -26.04380
  Beta  occ. eigenvalues --  -19.28506 -19.26308 -19.25707 -19.18776 -19.18566
  Beta  occ. eigenvalues --  -14.46563 -14.41579 -14.40010 -14.39659 -14.39238
  Beta  occ. eigenvalues --  -14.38939 -10.35922 -10.35559 -10.30073 -10.27971
  Beta  occ. eigenvalues --  -10.27894 -10.27723 -10.27715 -10.27616 -10.27447
  Beta  occ. eigenvalues --  -10.27120 -10.27111 -10.27073 -10.25977 -10.25619
  Beta  occ. eigenvalues --  -10.25614 -10.25520 -10.25478 -10.25280 -10.25278
  Beta  occ. eigenvalues --  -10.25122 -10.24932 -10.24912 -10.24846 -10.24814
  Beta  occ. eigenvalues --  -10.24744 -10.24630 -10.24494 -10.24360 -10.24268
  Beta  occ. eigenvalues --  -10.24238 -10.24206 -10.23650 -10.23643 -10.23495
  Beta  occ. eigenvalues --  -10.22971 -10.22822 -10.22769 -10.22435  -3.50403
  Beta  occ. eigenvalues --   -2.24898  -2.24709  -2.24610  -1.19297  -1.18946
  Beta  occ. eigenvalues --   -1.12774  -1.11262  -1.05012  -1.04336  -1.03751
  Beta  occ. eigenvalues --   -1.03002  -1.02631  -1.01936  -0.95663  -0.87389
  Beta  occ. eigenvalues --   -0.85972  -0.85788  -0.85539  -0.85065  -0.84506
  Beta  occ. eigenvalues --   -0.84221  -0.82771  -0.81558  -0.80854  -0.79611
  Beta  occ. eigenvalues --   -0.78422  -0.78196  -0.76519  -0.74670  -0.74409
  Beta  occ. eigenvalues --   -0.74228  -0.73859  -0.72511  -0.71407  -0.71014
  Beta  occ. eigenvalues --   -0.69506  -0.69406  -0.68294  -0.67343  -0.67042
  Beta  occ. eigenvalues --   -0.65612  -0.65327  -0.64809  -0.63859  -0.62148
  Beta  occ. eigenvalues --   -0.61775  -0.59511  -0.59425  -0.58337  -0.57609
  Beta  occ. eigenvalues --   -0.56952  -0.55629  -0.55515  -0.55216  -0.54793
  Beta  occ. eigenvalues --   -0.54088  -0.53571  -0.52798  -0.52396  -0.52105
  Beta  occ. eigenvalues --   -0.51828  -0.51661  -0.51096  -0.50565  -0.50380
  Beta  occ. eigenvalues --   -0.49266  -0.48563  -0.48508  -0.48323  -0.47878
  Beta  occ. eigenvalues --   -0.47730  -0.47405  -0.47158  -0.46930  -0.46549
  Beta  occ. eigenvalues --   -0.46246  -0.46132  -0.45667  -0.45477  -0.44613
  Beta  occ. eigenvalues --   -0.44503  -0.44298  -0.44150  -0.44011  -0.43970
  Beta  occ. eigenvalues --   -0.43589  -0.43544  -0.43336  -0.43099  -0.42868
  Beta  occ. eigenvalues --   -0.42813  -0.42400  -0.42051  -0.41938  -0.41442
  Beta  occ. eigenvalues --   -0.41107  -0.40984  -0.40767  -0.40115  -0.40012
  Beta  occ. eigenvalues --   -0.39836  -0.39645  -0.39429  -0.39089  -0.38669
  Beta  occ. eigenvalues --   -0.38174  -0.37887  -0.37633  -0.37276  -0.36191
  Beta  occ. eigenvalues --   -0.35999  -0.35910  -0.35727  -0.34704  -0.34215
  Beta  occ. eigenvalues --   -0.34077  -0.33469  -0.32762  -0.32306  -0.30590
  Beta  occ. eigenvalues --   -0.30363  -0.29143  -0.29121  -0.27002  -0.26410
  Beta  occ. eigenvalues --   -0.26067  -0.24695  -0.23138  -0.22350  -0.21681
  Beta virt. eigenvalues --   -0.13297  -0.12621  -0.11647  -0.10412  -0.10062
  Beta virt. eigenvalues --   -0.07556  -0.05305  -0.04936  -0.04484  -0.02325
  Beta virt. eigenvalues --   -0.01064  -0.00854   0.00053   0.00338   0.02720

 Mulliken charges and spin densities:
               1          2
     1  C   -0.390959   0.000992
     2  C    0.137978   0.010146
     3  N   -0.176830   0.003514
     4  C   -0.236513  -0.001794
     5  C    0.013369   0.014673
     6  N    0.041893   0.051021
     7  H    0.272266   0.000990
     8  C   -0.476679  -0.009209
     9  C   -0.524122  -0.007351
    10  C   -0.473546  -0.034047
    11  C   -0.524290  -0.020177
    12  C    0.350042   0.013845
    13  C    0.024354   0.013912
    14  C   -0.061540   0.019918
    15  C    0.247969   0.005774
    16  C   -0.421004   0.000476
    17  C   -0.433392   0.000238
    18  C   -0.133468   0.000532
    19  C    0.252626   0.000079
    20  O   -0.333941   0.000011
    21  O   -0.402721   0.000084
    22  C    0.309968   0.003342
    23  C   -0.126525   0.036558
    24  C   -0.013035  -0.003526
    25  C    0.287057   0.026503
    26  C   -0.394589  -0.000520
    27  C   -0.134684   0.029446
    28  C   -0.365112  -0.035472
    29  C    0.269123   0.028956
    30  C   -0.114962  -0.007933
    31  C    0.035569   0.040138
    32  C    0.287786   0.006060
    33  C   -0.409502   0.001625
    34  C   -0.212238  -0.069120
    35  C   -0.359775   0.097445
    36  C    0.294580   0.012434
    37  C   -0.086821   0.014150
    38  C   -0.005576   0.013798
    39  C    0.235991   0.014281
    40  C   -0.413953   0.000804
    41  C   -0.280107   0.000039
    42  C   -0.273553   0.000512
    43  C    0.290900   0.000056
    44  O   -0.332405   0.000038
    45  O   -0.373263   0.000007
    46  N   -0.101208   0.067419
    47  N   -0.085737   0.056871
    48  N   -0.111283   0.047102
    49  N   -0.098400   0.061890
    50  Fe  -0.040967   4.417003
    51  O   -0.489354   0.054342
    52  H    0.165866   0.000062
    53  H    0.155181   0.000277
    54  H    0.159677   0.000322
    55  H    0.180794   0.001809
    56  H    0.210365   0.000440
    57  H    0.155862   0.000690
    58  H    0.156091   0.000414
    59  H    0.159792   0.000332
    60  H    0.145166   0.000279
    61  H    0.147418   0.000070
    62  H    0.133877  -0.000008
    63  H    0.135308  -0.000026
    64  H    0.390426  -0.000001
    65  H    0.148252  -0.000546
    66  H    0.395784   0.007743
    67  H    0.397866   0.008784
    68  H    0.131370   0.000451
    69  H    0.141905   0.000112
    70  H    0.153236  -0.000021
    71  H    0.135962   0.000008
    72  H    0.393157  -0.000000
    73  H    0.154875   0.000380
    74  H    0.161787   0.000584
    75  H    0.146525  -0.000022
    76  H    0.143345   0.000155
    77  H    0.166183   0.000086
    78  H    0.165212  -0.000412
    79  H    0.151257  -0.000094
    80  H    0.176883  -0.004848
    81  H    0.180214  -0.004658
    82  H    0.157335   0.005028
    83  H    0.145693   0.000316
    84  H    0.177247   0.002132
    85  H    0.168454   0.002084
    86  H    0.152056  -0.001974
    87  H    0.159756   0.001372
    88  H    0.154860   0.000953
    89  H    0.142120  -0.000012
    90  H    0.163424  -0.000137
 Sum of Mulliken charges =   1.00000   5.00000

 Dipole moment (field-independent basis, Debye):
    X=             -7.6005    Y=              4.9398    Z=             -0.8836  Tot=              9.1077
 Quadrupole moment (field-independent basis, Debye-Ang):
   XX=           -265.6680   YY=           -225.7188   ZZ=           -245.2435
   XY=             22.7584   XZ=            -34.1866   YZ=             12.2017

 Normal termination of Gaussian 16 at Sat Jan 28 17:45:23 2023.
