 Gaussian 16, Revision A.03,
 Gaussian 16:  ES64L-G16RevA.03 25-Dec-2016

 ----------------------------------------------------------------------
 # PBE1PBE/def2TZVP empiricaldispersion=GD3BJ int=(grid=ultrafine) geom
 =check pop=nbo guess=read
 ----------------------------------------------------------------------

 ----------
 1moh_III_H
 ----------
 Structure from the checkpoint file:  "1moh_III_H.chk"
 Charge =  1 Multiplicity = 6

                         Standard orientation:
 ---------------------------------------------------------------------
 Center     Atomic      Atomic             Coordinates (Angstroms)
 Number     Number       Type             X           Y           Z
 ---------------------------------------------------------------------
      1          6           0       -1.521684    0.857729    5.186847
      2          6           0       -1.217927    0.227520    3.858695
      3          7           0       -0.739051   -1.062733    3.706006
      4          6           0       -1.289910    0.762400    2.606042
      5          6           0       -0.515280   -1.287220    2.410264
      6          7           0       -0.846880   -0.196457    1.739301
      7         26           0       -0.749404    0.028480   -0.395851
      8          6           0        2.505079   -0.598801   -0.398482
      9          6           0       -1.513651   -3.250170   -1.046968
     10          6           0       -4.024762    0.655920   -0.227105
     11          6           0       -0.120124    3.389553   -0.076013
     12          7           0        0.096673   -1.485813   -0.535815
     13          6           0        1.512418   -1.562347   -0.387692
     14          6           0        2.046480   -2.905817   -0.377076
     15          6           0        0.954606   -3.675202   -0.583803
     16          6           0       -0.222123   -2.829675   -0.709728
     17          6           0        1.017963   -5.199591   -0.774638
     18          6           0        3.541602   -3.388631   -0.436270
     19          6           0        3.734812   -4.039758    0.953805
     20          6           0        3.965339   -2.982984    2.011105
     21          8           0        5.068390   -2.391036    2.156173
     22          8           0        3.031720   -2.581872    2.712802
     23          7           0       -2.496216   -1.041867   -0.566975
     24          6           0       -2.556658   -2.324874   -0.966989
     25          6           0       -3.968634   -2.696014   -1.129410
     26          6           0       -4.744397   -1.698351   -0.719725
     27          6           0       -3.782140   -0.616213   -0.667646
     28          6           0       -4.157560   -4.157427   -1.549131
     29          6           0       -6.290002   -1.554873   -0.628516
     30          6           0       -7.076078   -2.438602   -1.224470
     31          7           0       -1.597561    1.466508   -0.231863
     32          6           0       -3.017075    1.594241   -0.214316
     33          6           0       -3.585125    2.905220   -0.033477
     34          6           0       -2.518988    3.706520   -0.087896
     35          6           0       -1.371202    2.835255   -0.230622
     36          6           0       -5.012212    3.465174   -0.221057
     37          6           0       -2.489446    5.259245    0.020911
     38          6           0       -3.230118    6.160962    0.724577
     39          7           0        0.850819    1.132406   -0.201202
     40          6           0        0.918332    2.501086   -0.131418
     41          6           0        2.320342    2.950847   -0.138520
     42          6           0        3.087427    1.836843   -0.082869
     43          6           0        2.167484    0.707608   -0.209248
     44          6           0        2.553876    4.459544    0.024329
     45          6           0        4.616728    1.741870    0.036565
     46          6           0        5.113973    1.965309   -1.426340
     47          6           0        6.602325    1.815463   -1.670925
     48          8           0        7.048784    0.679481   -1.979031
     49          8           0        7.343625    2.824925   -1.506459
     50         16           0       -0.695638    0.209185   -2.677536
     51          1           0       -0.950150    0.373095    5.950641
     52          1           0       -1.266673    1.896421    5.155431
     53          1           0       -2.564743    0.752877    5.401166
     54          1           0       -1.628507    1.744835    2.350948
     55          1           0       -0.133644   -2.192779    1.986924
     56          1           0       -0.586128   -1.718368    4.445437
     57          1           0       -0.389313   -0.832764   -3.410070
     58          1           0       -0.971199    1.354532   -3.250552
     59          1           0       -3.473013    5.970445    1.749080
     60          1           0       -3.568822    7.059534    0.252615
     61          1           0       -1.730188    5.712269   -0.581747
     62          1           0        0.028659    4.438160    0.076263
     63          1           0        3.563499    4.694825   -0.240635
     64          1           0        1.883345    4.995270   -0.614643
     65          1           0        2.377540    4.739981    1.041758
     66          1           0        4.907235    0.774266    0.389054
     67          1           0        4.991965    2.507830    0.682632
     68          1           0        4.604445    1.267688   -2.057692
     69          1           0        4.828929    2.952748   -1.724020
     70          1           0        8.286547    2.710438   -1.367208
     71          1           0        3.526704   -0.876436   -0.553724
     72          1           0        5.880057   -2.898837    2.226415
     73          1           0        4.579440   -4.695842    0.921290
     74          1           0        2.860198   -4.603269    1.203615
     75          1           0        3.677886   -4.108930   -1.215691
     76          1           0        4.204500   -2.558255   -0.562533
     77          1           0        1.576788   -5.636412    0.026487
     78          1           0        0.025807   -5.600239   -0.777390
     79          1           0        1.495385   -5.422932   -1.705814
     80          1           0       -1.697691   -4.257044   -1.358793
     81          1           0       -5.004372    0.923695    0.109883
     82          1           0       -5.724563    2.756864    0.147389
     83          1           0       -5.109199    4.383064    0.320213
     84          1           0       -5.191569    3.643535   -1.260729
     85          1           0       -3.779665   -4.800541   -0.781995
     86          1           0       -5.198719   -4.353889   -1.698430
     87          1           0       -3.626233   -4.338426   -2.460081
     88          1           0       -7.027488   -3.470817   -0.946854
     89          1           0       -7.759744   -2.120360   -1.983563
     90          1           0       -6.719372   -0.740532   -0.083181
 ---------------------------------------------------------------------

 SCF Done:  E(UPBE1PBE) =  -3761.11670471     A.U. after    1 cycles

 Alpha virt. eigenvalues --    0.63162   0.63354   0.63529   0.63944   0.64321
 Alpha virt. eigenvalues --    0.64509   0.64971   0.65054   0.65139   0.65850
 Alpha virt. eigenvalues --    0.65878   0.66069   0.66352   0.66839   0.67113

  Beta  occ. eigenvalues -- -256.49386 -89.13218 -30.24657 -26.08470 -26.07172
  Beta  occ. eigenvalues --  -26.06966 -19.33848 -19.33453 -19.25761 -19.24327
  Beta  occ. eigenvalues --  -14.53367 -14.50821 -14.49828 -14.47988 -14.47644
  Beta  occ. eigenvalues --  -14.47543 -10.43159 -10.42178 -10.37052 -10.36199
  Beta  occ. eigenvalues --  -10.35838 -10.35773 -10.35750 -10.34898 -10.34743
  Beta  occ. eigenvalues --  -10.34489 -10.34468 -10.34453 -10.33764 -10.33058
  Beta  occ. eigenvalues --  -10.32993 -10.32976 -10.32826 -10.32762 -10.32710
  Beta  occ. eigenvalues --  -10.32452 -10.32359 -10.32302 -10.32097 -10.32091
  Beta  occ. eigenvalues --  -10.31885 -10.31696 -10.31609 -10.31597 -10.31171
  Beta  occ. eigenvalues --  -10.30996 -10.30967 -10.30861 -10.30631 -10.30458
  Beta  occ. eigenvalues --  -10.30238 -10.29982 -10.29365 -10.28588  -8.11729
  Beta  occ. eigenvalues --   -6.05371  -6.05030  -6.04510  -3.56032  -2.34186
  Beta  occ. eigenvalues --   -2.30319  -2.28444  -1.24610  -1.23238  -1.14832
  Beta  occ. eigenvalues --   -1.11045  -1.10004  -1.08653  -1.08633  -1.07885
  Beta  occ. eigenvalues --   -1.06608  -0.99609  -0.94937  -0.93977  -0.93563
  Beta  occ. eigenvalues --   -0.92335  -0.91714  -0.91308  -0.90846  -0.89530
  Beta  occ. eigenvalues --   -0.89127  -0.88351  -0.87675  -0.86761  -0.85844
  Beta  occ. eigenvalues --   -0.85499  -0.83631  -0.82074  -0.81627  -0.81332
  Beta  occ. eigenvalues --   -0.80813  -0.78600  -0.78171  -0.77884  -0.75748
  Beta  occ. eigenvalues --   -0.75198  -0.74669  -0.73330  -0.72587  -0.70918
  Beta  occ. eigenvalues --   -0.70790  -0.69266  -0.68793  -0.68142  -0.65734
  Beta  occ. eigenvalues --   -0.65639  -0.65245  -0.64663  -0.63836  -0.62969
  Beta  occ. eigenvalues --   -0.62132  -0.61656  -0.61484  -0.61037  -0.60532
  Beta  occ. eigenvalues --   -0.59319  -0.58708  -0.58225  -0.57968  -0.57347
  Beta  occ. eigenvalues --   -0.57266  -0.56639  -0.56398  -0.56117  -0.55827
  Beta  occ. eigenvalues --   -0.55643  -0.55045  -0.54752  -0.54490  -0.54209
  Beta  occ. eigenvalues --   -0.53916  -0.53605  -0.53461  -0.53384  -0.53163
  Beta  occ. eigenvalues --   -0.52802  -0.52504  -0.52317  -0.52138  -0.51922
  Beta  occ. eigenvalues --   -0.51544  -0.51272  -0.51147  -0.50854  -0.50728
  Beta  occ. eigenvalues --   -0.50668  -0.50368  -0.50291  -0.50264  -0.50078
  Beta  occ. eigenvalues --   -0.49400  -0.49026  -0.48977  -0.48591  -0.48425
  Beta  occ. eigenvalues --   -0.48028  -0.47905  -0.47664  -0.47046  -0.46867
  Beta  occ. eigenvalues --   -0.46359  -0.46029  -0.45359  -0.45324  -0.44475
  Beta  occ. eigenvalues --   -0.44229  -0.43470  -0.43214  -0.43007  -0.42471
  Beta  occ. eigenvalues --   -0.42255  -0.41457  -0.41121  -0.40417  -0.39342
  Beta  occ. eigenvalues --   -0.39158  -0.38557  -0.38294  -0.37922  -0.36166
  Beta  occ. eigenvalues --   -0.35472  -0.35235  -0.34951  -0.34703  -0.33459
  Beta  occ. eigenvalues --   -0.32918  -0.32235  -0.29467  -0.28179
  Beta virt. eigenvalues --   -0.20313  -0.19243  -0.17740  -0.14716  -0.13745
  Beta virt. eigenvalues --   -0.12316  -0.11832  -0.10056  -0.08748  -0.08506
  Beta virt. eigenvalues --   -0.08410  -0.06691  -0.06442  -0.06092  -0.05783

 Mulliken charges and spin densities:
               1          2
     1  C   -0.369222   0.001007
     2  C    0.130145   0.004825
     3  N   -0.203149   0.002962
     4  C   -0.181500   0.000325
     5  C    0.036395   0.005061
     6  N   -0.082763   0.059135
     7  Fe  -0.331335   2.753383
     8  C   -0.432291  -0.024504
     9  C   -0.481111   0.048134
    10  C   -0.454309   0.007050
    11  C   -0.413241  -0.043410
    12  N    0.107587  -0.046692
    13  C    0.318424   0.044012
    14  C   -0.098634   0.000348
    15  C   -0.022799   0.060355
    16  C    0.125279  -0.035930
    17  C   -0.382014  -0.003740
    18  C   -0.148335  -0.000966
    19  C   -0.181009   0.000316
    20  C    0.260375   0.000158
    21  O   -0.325857  -0.000027
    22  O   -0.350477   0.000082
    23  N   -0.009509   0.025434
    24  C    0.243874  -0.043782
    25  C   -0.082402   0.243600
    26  C   -0.067460  -0.098472
    27  C    0.297567   0.044254
    28  C   -0.359279  -0.014339
    29  C   -0.143618   0.764493
    30  C   -0.306254   0.987604
    31  N    0.097224  -0.066324
    32  C    0.271243   0.000744
    33  C   -0.085114   0.047540
    34  C    0.097504   0.018895
    35  C    0.124041   0.042052
    36  C   -0.322041  -0.003045
    37  C   -0.261987  -0.030247
    38  C   -0.291620   0.037826
    39  N    0.082878  -0.045393
    40  C    0.265150   0.053893
    41  C   -0.080176   0.007249
    42  C   -0.071131   0.021847
    43  C    0.257875   0.034214
    44  C   -0.364947  -0.000584
    45  C   -0.317469  -0.002431
    46  C   -0.168088   0.001222
    47  C    0.274899   0.000318
    48  O   -0.391666   0.000235
    49  O   -0.329061  -0.000014
    50  S   -0.281862   0.068349
    51  H    0.137228   0.000140
    52  H    0.151793   0.000036
    53  H    0.154264   0.000140
    54  H    0.154235   0.001387
    55  H    0.180144   0.000881
    56  H    0.245915   0.001484
    57  H    0.202761   0.013743
    58  H    0.197677   0.013348
    59  H    0.152213  -0.002130
    60  H    0.165355  -0.002265
    61  H    0.136619   0.003197
    62  H    0.153042   0.001306
    63  H    0.145454   0.000020
    64  H    0.144107   0.000109
    65  H    0.156905   0.000858
    66  H    0.141570   0.000060
    67  H    0.146467   0.000444
    68  H    0.142586  -0.000189
    69  H    0.130268  -0.000036
    70  H    0.353987   0.000055
    71  H    0.126290   0.000573
    72  H    0.348163  -0.000001
    73  H    0.135929   0.000171
    74  H    0.105434  -0.000059
    75  H    0.146043   0.000506
    76  H    0.134416  -0.000182
    77  H    0.141652   0.001417
    78  H    0.135949   0.000261
    79  H    0.154010   0.002531
    80  H    0.155193  -0.002813
    81  H    0.109025   0.000328
    82  H    0.126251   0.000349
    83  H    0.155906   0.000217
    84  H    0.150965   0.003018
    85  H    0.150870   0.010544
    86  H    0.128492   0.000080
    87  H    0.146336   0.008611
    88  H    0.150650   0.007346
    89  H    0.157332   0.003942
    90  H    0.149775   0.003552
 Sum of Mulliken charges =   1.00000   5.00000

 Dipole moment (field-independent basis, Debye):
    X=             -0.8570    Y=             -1.0366    Z=              1.7175  Tot=              2.1815
 Quadrupole moment (field-independent basis, Debye-Ang):
   XX=           -207.6394   YY=           -216.4663   ZZ=           -268.9506
   XY=             -9.5901   XZ=              9.1648   YZ=             -1.1545

 Summary of Natural Population Analysis:

                                       Natural Population
                Natural  -----------------------------------------------
    Atom  No    Charge         Core      Valence    Rydberg      Total
 -----------------------------------------------------------------------
      C    1   -0.32086      0.99969     2.31807    0.00310     3.32086
      C    2    0.06464      0.99956     1.92690    0.00891     2.93536
      N    3   -0.23295      0.99969     2.72351    0.00975     3.73295
      C    4   -0.04045      0.99945     2.03211    0.00889     3.04045
      C    5    0.10463      0.99966     1.88539    0.01033     2.89537
      N    6   -0.13958      0.99971     2.61961    0.02027     3.63958
     Fe    7    1.32485      8.99049     2.65792    0.02674    11.67515
      C    8   -0.12536      0.99942     2.11703    0.00891     3.12536
      C    9   -0.10825      0.99948     2.10067    0.00810     3.10825
      C   10   -0.10224      0.99944     2.09422    0.00858     3.10224
      C   11   -0.14415      0.99942     2.13613    0.00860     3.14415
      N   12   -0.19670      0.99955     2.67608    0.02107     3.69670
      C   13    0.10738      0.99940     1.88244    0.01077     2.89262
      C   14    0.00240      0.99933     1.98779    0.01048     2.99760
      C   15    0.01782      0.99939     1.97424    0.00856     2.98218
      C   16    0.06600      0.99952     1.92377    0.01071     2.93400
      C   17   -0.32060      0.99969     2.31730    0.00361     3.32060
      C   18   -0.20333      0.99966     2.19720    0.00647     3.20333
      C   19   -0.25206      0.99963     2.24396    0.00848     3.25206
      C   20    0.37944      0.99976     1.60316    0.01764     2.62056
      O   21   -0.32797      0.99981     3.31269    0.01547     4.32797
      O   22   -0.28746      0.99988     3.27505    0.01252     4.28746
      N   23   -0.16114      0.99967     2.63921    0.02226     3.66114
      C   24    0.06309      0.99956     1.92699    0.01036     2.93691
      C   25    0.11438      0.99940     1.87781    0.00841     2.88562
      C   26   -0.06906      0.99923     2.05951    0.01031     3.06906
      C   27    0.11362      0.99947     1.87669    0.01022     2.88638
      C   28   -0.32518      0.99970     2.32195    0.00353     3.32518
      C   29    0.28955      0.99954     1.70280    0.00811     2.71045
      C   30    0.29363      0.99958     1.69858    0.00821     2.70637
      N   31   -0.18246      0.99949     2.66162    0.02135     3.68246
      C   32    0.08360      0.99938     1.90637    0.01065     2.91640
      C   33    0.02740      0.99929     1.96375    0.00955     2.97260
      C   34   -0.02247      0.99928     2.01287    0.01032     3.02247
      C   35    0.10672      0.99944     1.88342    0.01041     2.89328
      C   36   -0.31582      0.99968     2.30981    0.00632     3.31582
      C   37   -0.11791      0.99960     2.10889    0.00943     3.11791
      C   38   -0.16687      0.99963     2.15881    0.00843     3.16687
      N   39   -0.19123      0.99966     2.67064    0.02094     3.69123
      C   40    0.11338      0.99952     1.87682    0.01028     2.88662
      C   41    0.00454      0.99943     1.98789    0.00814     2.99546
      C   42    0.00435      0.99940     1.98697    0.00927     2.99565
      C   43    0.10417      0.99950     1.88611    0.01022     2.89583
      C   44   -0.32242      0.99969     2.31899    0.00373     3.32242
      C   45   -0.20623      0.99966     2.20029    0.00627     3.20623
      C   46   -0.24253      0.99962     2.23472    0.00819     3.24253
      C   47    0.37998      0.99976     1.60247    0.01779     2.62002
      O   48   -0.30745      0.99990     3.29572    0.01184     4.30745
      O   49   -0.32320      0.99982     3.31030    0.01309     4.32320
      S   50    0.06671      4.99916     2.91572    0.01841     7.93329
      H   51    0.11276      0.00000     0.38664    0.00060     0.38724
      H   52    0.11887      0.00000     0.38063    0.00050     0.38113
      H   53    0.11578      0.00000     0.38358    0.00063     0.38422
      H   54    0.11438      0.00000     0.38485    0.00077     0.38562
      H   55    0.11536      0.00000     0.38379    0.00085     0.38464
      H   56    0.21337      0.00000     0.28587    0.00076     0.28663
      H   57    0.10893      0.00000     0.38951    0.00156     0.39107
      H   58    0.10650      0.00000     0.39188    0.00161     0.39350
      H   59    0.10055      0.00000     0.39840    0.00105     0.39945
      H   60    0.10786      0.00000     0.39140    0.00074     0.39214
      H   61    0.10348      0.00000     0.39536    0.00116     0.39652
      H   62    0.12044      0.00000     0.37840    0.00116     0.37956
      H   63    0.11405      0.00000     0.38526    0.00069     0.38595
      H   64    0.11221      0.00000     0.38712    0.00067     0.38779
      H   65    0.11668      0.00000     0.38258    0.00074     0.38332
      H   66    0.11442      0.00000     0.38480    0.00079     0.38558
      H   67    0.11510      0.00000     0.38422    0.00068     0.38490
      H   68    0.11747      0.00000     0.38193    0.00060     0.38253
      H   69    0.11046      0.00000     0.38883    0.00070     0.38954
      H   70    0.25793      0.00000     0.24068    0.00139     0.24207
      H   71    0.11459      0.00000     0.38397    0.00144     0.38541
      H   72    0.25279      0.00000     0.24611    0.00109     0.24721
      H   73    0.11059      0.00000     0.38864    0.00077     0.38941
      H   74    0.11848      0.00000     0.38078    0.00074     0.38152
      H   75    0.11888      0.00000     0.38030    0.00082     0.38112
      H   76    0.11250      0.00000     0.38675    0.00075     0.38750
      H   77    0.11233      0.00000     0.38688    0.00079     0.38767
      H   78    0.11254      0.00000     0.38688    0.00058     0.38746
      H   79    0.11593      0.00000     0.38332    0.00075     0.38407
      H   80    0.11776      0.00000     0.38094    0.00131     0.38224
      H   81    0.11219      0.00000     0.38628    0.00153     0.38781
      H   82    0.10791      0.00000     0.39165    0.00044     0.39209
      H   83    0.12094      0.00000     0.37846    0.00060     0.37906
      H   84    0.11968      0.00000     0.37968    0.00064     0.38032
      H   85    0.11656      0.00000     0.38276    0.00067     0.38344
      H   86    0.11386      0.00000     0.38546    0.00067     0.38614
      H   87    0.11692      0.00000     0.38247    0.00061     0.38308
      H   88    0.10677      0.00000     0.39263    0.00060     0.39323
      H   89    0.11142      0.00000     0.38811    0.00048     0.38858
      H   90    0.11437      0.00000     0.38502    0.00061     0.38563
 =======================================================================
   * Total *    3.00000     61.96866   126.44381    0.58753   189.00000

 Normal termination of Gaussian 16 at Mon Nov 14 10:36:00 2022.
