 Gaussian 16, Revision A.03,

 ----------------------------------------------------------------------
 # PBE1PBE/def2TZVP scf=maxcycle=999 empiricaldispersion=GD3BJ int=(gri
 d=ultrafine) geom=check pop=nbo
 ----------------------------------------------------------------------

 ---------
 7aba_II_Q
 ---------
 Structure from the checkpoint file:  "7aba_II_Q.chk"
 Charge =  0 Multiplicity = 5

 SCF Done:  E(UPBE1PBE) =  -3536.30200285     A.U. after   60 cycles

 Summary of Natural Population Analysis:

                                       Natural Population
                Natural  -----------------------------------------------
    Atom  No    Charge         Core      Valence    Rydberg      Total
 -----------------------------------------------------------------------
      C    1   -0.37754      0.99965     2.37070    0.00719     3.37754
      S    2    0.11964      4.99946     2.85560    0.02529     7.88036
      H    3    0.12072      0.00000     0.37850    0.00078     0.37928
      H    4    0.11138      0.00000     0.38802    0.00060     0.38862
     Fe    5    2.20077      8.99574     1.78923    0.01427    10.79923
      C    6   -0.12218      0.99947     2.11429    0.00842     3.12218
      C    7   -0.12708      0.99949     2.11944    0.00815     3.12708
      C    8   -0.11841      0.99948     2.11070    0.00822     3.11841
      C    9   -0.09582      0.99948     2.08864    0.00770     3.09582
      N   10   -0.22604      0.99971     2.70608    0.02024     3.72604
      C   11    0.07681      0.99953     1.91307    0.01059     2.92319
      C   12   -0.01846      0.99938     2.01006    0.00902     3.01846
      C   13   -0.00726      0.99938     1.99998    0.00789     3.00726
      C   14    0.06915      0.99954     1.92075    0.01056     2.93085
      C   15   -0.30528      0.99958     2.30244    0.00326     3.30528
      C   16   -0.18877      0.99953     2.18288    0.00636     3.18877
      C   17   -0.25039      0.99950     2.24293    0.00797     3.25039
      C   18    0.38384      0.99977     1.59948    0.01691     2.61616
      O   19   -0.31417      0.99981     3.29931    0.01505     4.31417
      O   20   -0.29479      0.99990     3.28324    0.01166     4.29479
      N   21   -0.24704      0.99971     2.72939    0.01795     3.74704
      C   22    0.08036      0.99955     1.91019    0.00991     2.91964
      C   23   -0.03119      0.99938     2.02341    0.00841     3.03119
      C   24   -0.02694      0.99937     2.01768    0.00988     3.02694
      C   25    0.07361      0.99955     1.91648    0.01036     2.92639
      C   26   -0.29925      0.99956     2.29623    0.00345     3.29925
      C   27   -0.49965      0.99960     2.49116    0.00889     3.49965
      C   28   -0.31106      0.99958     2.30746    0.00401     3.31106
      N   29   -0.20941      0.99971     2.68943    0.02027     3.70941
      C   30    0.07419      0.99955     1.91559    0.01067     2.92581
      C   31    0.00470      0.99937     1.98783    0.00809     2.99530
      C   32   -0.06969      0.99937     2.06117    0.00916     3.06969
      C   33    0.07664      0.99954     1.91339    0.01043     2.92336
      C   34   -0.30230      0.99957     2.29936    0.00337     3.30230
      C   35    0.46911      0.99912     1.52684    0.00493     2.53089
      C   36   -0.33521      0.99957     2.33253    0.00310     3.33521
      N   37   -0.23648      0.99972     2.72049    0.01627     3.73648
      C   38    0.06209      0.99950     1.92894    0.00947     2.93791
      C   39    0.01441      0.99958     1.97846    0.00755     2.98559
      C   40   -0.01196      0.99958     2.00430    0.00808     3.01196
      C   41    0.07264      0.99950     1.91804    0.00982     2.92736
      C   42   -0.30826      0.99958     2.30554    0.00315     3.30826
      C   43   -0.19481      0.99953     2.18907    0.00620     3.19481
      C   44   -0.24702      0.99951     2.23941    0.00810     3.24702
      C   45    0.38312      0.99977     1.59971    0.01740     2.61688
      O   46   -0.31240      0.99981     3.29743    0.01516     4.31240
      O   47   -0.29574      0.99989     3.28368    0.01217     4.29574
      H   48    0.10294      0.00000     0.39612    0.00094     0.39706
      H   49    0.10242      0.00000     0.39626    0.00132     0.39758
      H   50    0.10562      0.00000     0.39229    0.00209     0.39438
      H   51    0.10410      0.00000     0.39472    0.00119     0.39590
      H   52    0.10532      0.00000     0.39394    0.00074     0.39468
      H   53    0.10473      0.00000     0.39463    0.00064     0.39527
      H   54    0.10415      0.00000     0.39513    0.00072     0.39585
      H   55    0.10787      0.00000     0.39110    0.00103     0.39213
      H   56    0.10411      0.00000     0.39490    0.00099     0.39589
      H   57    0.10712      0.00000     0.39217    0.00071     0.39288
      H   58    0.10620      0.00000     0.39310    0.00070     0.39380
      H   59    0.10496      0.00000     0.39428    0.00076     0.39504
      H   60    0.10339      0.00000     0.39568    0.00093     0.39661
      H   61    0.10203      0.00000     0.39741    0.00057     0.39797
      H   62    0.08178      0.00000     0.41713    0.00109     0.41822
      H   63    0.09548      0.00000     0.40378    0.00073     0.40452
      H   64    0.09616      0.00000     0.40288    0.00096     0.40384
      H   65    0.09584      0.00000     0.40337    0.00079     0.40416
      H   66    0.10502      0.00000     0.39424    0.00074     0.39498
      H   67    0.10405      0.00000     0.39516    0.00079     0.39595
      H   68    0.10270      0.00000     0.39675    0.00055     0.39730
      H   69    0.06513      0.00000     0.43370    0.00117     0.43487
      H   70    0.11833      0.00000     0.38115    0.00052     0.38167
      H   71    0.10683      0.00000     0.39249    0.00068     0.39317
      H   72    0.10575      0.00000     0.39368    0.00057     0.39425
      H   73    0.10434      0.00000     0.39494    0.00072     0.39566
      H   74    0.10431      0.00000     0.39511    0.00058     0.39569
      H   75    0.10749      0.00000     0.39181    0.00070     0.39251
      H   76    0.10454      0.00000     0.39452    0.00094     0.39546
      H   77    0.10887      0.00000     0.39000    0.00112     0.39113
      H   78    0.10953      0.00000     0.38981    0.00065     0.39047
      H   79    0.10020      0.00000     0.39899    0.00081     0.39980
      H   80    0.12002      0.00000     0.37950    0.00048     0.37998
      H   81    0.09181      0.00000     0.40630    0.00189     0.40819
      H   82    0.24876      0.00000     0.25022    0.00102     0.25124
      H   83    0.24955      0.00000     0.24944    0.00101     0.25045
 =======================================================================
   * Total *    2.00000     56.97651   115.53530    0.48819   173.00000

 Normal termination of Gaussian 16 at Wed Feb  8 13:43:43 2023.
 Gaussian 16:  ES64L-G16RevA.03 25-Dec-2016

 ----------------------------------------------------------------------
 # PBE1PBE/def2TZVP empiricaldispersion=GD3BJ int=(grid=ultrafine) geom
 =check guess=read scrf=(smd,solvent=Chloroform)
 ----------------------------------------------------------------------

 --------------
 7aba_II_Q_solv
 --------------
 Structure from the checkpoint file:  "7aba_II_Q.chk"
 Charge =  0 Multiplicity = 5

                         Standard orientation:
 ---------------------------------------------------------------------
 Center     Atomic      Atomic             Coordinates (Angstroms)
 Number     Number       Type             X           Y           Z
 ---------------------------------------------------------------------
      1          6           0       -0.118224   -0.702271    2.897958
      2         16           0       -1.406411    0.228413    2.096209
      3          1           0        0.177730   -1.516147    2.269533
      4          1           0       -0.481049   -1.084367    3.829226
      5         26           0       -1.025748   -0.040943   -0.247034
      6          6           0        2.415686    0.050262   -0.145902
      7          6           0       -0.897602   -3.460436   -0.147775
      8          6           0       -4.454013   -0.144907   -0.306964
      9          6           0       -1.161091    3.352786   -0.723413
     10          7           0        0.484626   -1.446552   -0.196339
     11          6           0        1.835479   -1.182458   -0.072886
     12          6           0        2.534139   -2.436902    0.129932
     13          6           0        1.599721   -3.410852    0.131552
     14          6           0        0.306234   -2.803567   -0.072867
     15          6           0        1.824806   -4.931441    0.311133
     16          6           0        4.069998   -2.580711    0.322960
     17          6           0        4.772627   -2.709160   -1.025454
     18          6           0        6.252100   -2.926202   -0.847213
     19          8           0        6.968333   -2.919073   -1.882574
     20          8           0        6.715372   -3.075524    0.316117
     21          7           0       -2.407834   -1.517475   -0.264848
     22          6           0       -2.139322   -2.869890   -0.196899
     23          6           0       -3.402096   -3.579010   -0.189154
     24          6           0       -4.386460   -2.658509   -0.201824
     25          6           0       -3.774892   -1.342379   -0.264460
     26          6           0       -3.512439   -5.119045   -0.123869
     27          6           0       -5.916593   -2.849942   -0.245842
     28          6           0       -6.480411   -3.950701    0.649039
     29          7           0       -2.541036    1.355100   -0.519039
     30          6           0       -3.885439    1.104613   -0.403792
     31          6           0       -4.589055    2.372673   -0.444726
     32          6           0       -3.662313    3.350459   -0.536172
     33          6           0       -2.366241    2.714922   -0.592921
     34          6           0       -6.120734    2.512013   -0.321897
     35          6           0       -3.860200    4.880278   -0.613556
     36          6           0       -4.829926    5.365658    0.473946
     37          7           0        0.387365    1.435738   -0.406850
     38          6           0        0.081976    2.777110   -0.616960
     39          6           0        1.310348    3.522519   -0.726610
     40          6           0        2.423512    2.501990   -0.530676
     41          6           0        1.760134    1.235653   -0.349188
     42          6           0        1.446162    5.039801   -0.960891
     43          6           0        3.946992    2.754695   -0.559332
     44          6           0        4.423574    2.967774    0.872489
     45          6           0        5.929985    3.117838    0.910109
     46          8           0        6.446736    3.613072    1.939847
     47          8           0        6.595460    2.736606   -0.075413
     48          1           0        3.389600    0.091125   -0.043288
     49          1           0       -0.870051   -4.439618   -0.166984
     50          1           0       -5.431390   -0.186626   -0.264591
     51          1           0       -1.187675    4.314020   -0.911546
     52          1           0        1.334561   -5.243080    1.100064
     53          1           0        2.781088   -5.107267    0.429412
     54          1           0        1.501489   -5.405248   -0.482915
     55          1           0        4.253036   -3.371211    0.855265
     56          1           0        4.408813   -1.797861    0.786553
     57          1           0        4.629787   -1.898231   -1.537368
     58          1           0        4.396691   -3.461413   -1.509037
     59          1           0       -3.977093   -5.443036   -0.910520
     60          1           0       -4.006010   -5.373604    0.670943
     61          1           0       -2.623525   -5.505571   -0.090108
     62          1           0       -6.184701   -3.015615   -1.152219
     63          1           0       -7.104013   -3.564219    1.283038
     64          1           0       -5.755547   -4.380692    1.129261
     65          1           0       -6.939753   -4.607767    0.103364
     66          1           0       -6.472574    2.931635   -1.122602
     67          1           0       -6.334741    3.058528    0.450924
     68          1           0       -6.518045    1.633695   -0.215662
     69          1           0       -4.218656    5.106750   -1.474877
     70          1           0       -4.377458    6.000747    1.050131
     71          1           0       -5.130086    4.608835    0.999948
     72          1           0       -5.593659    5.793579    0.057811
     73          1           0        1.931105    5.444530   -0.211777
     74          1           0        0.554055    5.441716   -1.027454
     75          1           0        1.938837    5.199242   -1.793377
     76          1           0        4.136793    3.544209   -1.088978
     77          1           0        4.397733    1.986676   -0.943664
     78          1           0        4.164364    2.206041    1.414239
     79          1           0        4.012698    3.770169    1.230746
     80          1           0        0.723007   -0.065756    3.077064
     81          1           0       -2.338629   -0.589793    1.674772
     82          1           0        5.888442    3.996905    2.619979
     83          1           0        6.569277   -3.065684   -2.743306
 ---------------------------------------------------------------------

 SCF Done:  E(UPBE1PBE) =  -3536.36018460     A.U. after   35 cycles

 Alpha virt. eigenvalues --    0.38231   0.38546   0.38593   0.38685   0.39115
 Alpha virt. eigenvalues --    0.39265   0.39417   0.39952   0.40062   0.40252
 Alpha virt. eigenvalues --    0.40425   0.40897   0.41009   0.41195   0.41361

  Beta  occ. eigenvalues -- -256.33349 -89.01738 -30.05992 -25.89737 -25.89155
  Beta  occ. eigenvalues --  -25.88695 -19.26729 -19.26562 -19.17953 -19.17805
  Beta  occ. eigenvalues --  -14.37061 -14.36695 -14.36522 -14.36163 -10.35329
  Beta  occ. eigenvalues --  -10.35112 -10.25358 -10.25271 -10.24913 -10.24878
  Beta  occ. eigenvalues --  -10.24774 -10.24749 -10.24730 -10.24392 -10.23809
  Beta  occ. eigenvalues --  -10.23434 -10.23245 -10.23122 -10.22885 -10.22567
  Beta  occ. eigenvalues --  -10.22309 -10.22241 -10.22167 -10.22073 -10.21616
  Beta  occ. eigenvalues --  -10.21168 -10.21124 -10.21116 -10.21110 -10.20159
  Beta  occ. eigenvalues --  -10.20134 -10.19649 -10.19645 -10.17921 -10.17798
  Beta  occ. eigenvalues --  -10.17660 -10.17332 -10.16793 -10.16622  -7.99940
  Beta  occ. eigenvalues --   -5.93576  -5.93201  -5.92772  -3.36989  -2.12340
  Beta  occ. eigenvalues --   -2.11640  -2.11325  -1.16762  -1.16403  -1.03115
  Beta  occ. eigenvalues --   -1.02578  -0.98080  -0.97097  -0.96762  -0.94996
  Beta  occ. eigenvalues --   -0.84781  -0.83866  -0.83490  -0.83115  -0.82217
  Beta  occ. eigenvalues --   -0.81883  -0.81593  -0.81259  -0.79586  -0.78958
  Beta  occ. eigenvalues --   -0.78344  -0.77497  -0.76831  -0.74797  -0.73670
  Beta  occ. eigenvalues --   -0.73327  -0.73043  -0.70760  -0.69794  -0.69169
  Beta  occ. eigenvalues --   -0.67603  -0.67321  -0.67098  -0.66574  -0.66072
  Beta  occ. eigenvalues --   -0.65085  -0.63291  -0.59677  -0.59482  -0.56968
  Beta  occ. eigenvalues --   -0.56067  -0.55727  -0.54456  -0.54314  -0.53553
  Beta  occ. eigenvalues --   -0.52815  -0.52641  -0.51953  -0.51433  -0.50973
  Beta  occ. eigenvalues --   -0.49654  -0.49157  -0.48281  -0.48049  -0.47771
  Beta  occ. eigenvalues --   -0.47448  -0.47302  -0.46641  -0.46225  -0.46131
  Beta  occ. eigenvalues --   -0.45917  -0.45804  -0.45642  -0.45299  -0.44846
  Beta  occ. eigenvalues --   -0.44469  -0.44370  -0.44165  -0.43781  -0.43431
  Beta  occ. eigenvalues --   -0.43332  -0.43244  -0.42830  -0.42539  -0.41944
  Beta  occ. eigenvalues --   -0.41702  -0.41657  -0.41181  -0.40955  -0.40709
  Beta  occ. eigenvalues --   -0.40428  -0.39969  -0.39899  -0.39525  -0.39382
  Beta  occ. eigenvalues --   -0.39275  -0.38873  -0.38617  -0.38116  -0.37900
  Beta  occ. eigenvalues --   -0.37460  -0.37227  -0.36084  -0.35584  -0.35394
  Beta  occ. eigenvalues --   -0.34778  -0.34288  -0.33957  -0.33840  -0.33263
  Beta  occ. eigenvalues --   -0.32940  -0.32747  -0.31319  -0.30452  -0.29941
  Beta  occ. eigenvalues --   -0.29065  -0.28734  -0.28270  -0.28172  -0.28040
  Beta  occ. eigenvalues --   -0.25802  -0.25075  -0.24337  -0.23168  -0.22189
  Beta  occ. eigenvalues --   -0.20045  -0.19826  -0.17289
  Beta virt. eigenvalues --   -0.08171  -0.07632  -0.05776  -0.01341  -0.00450
  Beta virt. eigenvalues --   -0.00176   0.00952   0.01482   0.01958   0.03097
  Beta virt. eigenvalues --    0.03954   0.04087   0.04298   0.04882   0.05897

 Mulliken charges and spin densities:
               1          2
     1  C   -0.335942  -0.009882
     2  S   -0.149442   0.069430
     3  H    0.157838   0.002734
     4  H    0.166819   0.001090
     5  Fe   0.220984   3.857751
     6  C   -0.556351  -0.025194
     7  C   -0.554669  -0.017212
     8  C   -0.504701  -0.015893
     9  C   -0.540139   0.011460
    10  N   -0.202484   0.020520
    11  C    0.277398   0.014639
    12  C    0.005357  -0.007825
    13  C   -0.085903   0.007878
    14  C    0.236568  -0.002063
    15  C   -0.393349   0.000526
    16  C   -0.337425   0.001548
    17  C   -0.271329  -0.000300
    18  C    0.324040   0.000001
    19  O   -0.316825  -0.000019
    20  O   -0.430525   0.000009
    21  N   -0.217130   0.005083
    22  C    0.320100   0.001090
    23  C   -0.093959  -0.043116
    24  C   -0.108050   0.064820
    25  C    0.248066  -0.002373
    26  C   -0.351455   0.004125
    27  C   -0.188227  -0.986482
    28  C   -0.345644   0.039509
    29  N   -0.164045   0.037112
    30  C    0.333072  -0.002200
    31  C   -0.152835   0.030448
    32  C   -0.093290  -0.042188
    33  C    0.266829  -0.005399
    34  C   -0.349634  -0.001486
    35  C   -0.168465   0.990678
    36  C   -0.361212  -0.037666
    37  N   -0.172299   0.006759
    38  C    0.339261  -0.005830
    39  C   -0.130381   0.025628
    40  C   -0.061824  -0.004825
    41  C    0.266664   0.013727
    42  C   -0.385447  -0.000283
    43  C   -0.257673   0.001324
    44  C   -0.291126  -0.000404
    45  C    0.315707  -0.000019
    46  O   -0.308059  -0.000024
    47  O   -0.422944   0.000015
    48  H    0.169025   0.000545
    49  H    0.161440   0.000399
    50  H    0.159957  -0.006994
    51  H    0.159092   0.004795
    52  H    0.151675   0.000015
    53  H    0.147541   0.000129
    54  H    0.147847  -0.000010
    55  H    0.144457   0.000037
    56  H    0.136545  -0.000174
    57  H    0.161668   0.000116
    58  H    0.156685  -0.000057
    59  H    0.149922  -0.001594
    60  H    0.142744  -0.001033
    61  H    0.137797  -0.000021
    62  H    0.143824   0.021567
    63  H    0.147479  -0.026850
    64  H    0.128199  -0.008981
    65  H    0.131607  -0.011222
    66  H    0.146548   0.001007
    67  H    0.140014   0.001199
    68  H    0.139116  -0.000396
    69  H    0.140827  -0.018101
    70  H    0.146950   0.026112
    71  H    0.136924   0.008869
    72  H    0.131929   0.010775
    73  H    0.143387   0.000443
    74  H    0.138388   0.000395
    75  H    0.153536   0.000544
    76  H    0.143344   0.000069
    77  H    0.137165  -0.000129
    78  H    0.161583   0.000034
    79  H    0.151381   0.000049
    80  H    0.160692   0.000295
    81  H    0.208991   0.000944
    82  H    0.382277   0.000000
    83  H    0.383520   0.000003
 Sum of Mulliken charges =  -0.00000   4.00000

 Dipole moment (field-independent basis, Debye):
    X=             -7.2430    Y=             -0.9373    Z=              0.9964  Tot=              7.3711
 Quadrupole moment (field-independent basis, Debye-Ang):
   XX=           -320.9780   YY=           -227.6115   ZZ=           -258.0574
   XY=             11.4166   XZ=             -6.5782   YZ=             23.4224

 Normal termination of Gaussian 16 at Wed Feb  8 23:17:58 2023.
