 Gaussian 16, Revision A.03,

 ----------------------------------------------------------------------
 # PBE1PBE/def2TZVP empiricaldispersion=GD3BJ int=(grid=ultrafine) geom
 =check pop=nbo
 ----------------------------------------------------------------------

 ----------
 451c_III_D
 ----------
 Structure from the checkpoint file:  "451c_III_D.chk"
 Charge =  1 Multiplicity = 2

 SCF Done:  E(UPBE1PBE) =  -3881.47188688     A.U. after   86 cycles

 Summary of Natural Population Analysis:

                                       Natural Population
                Natural  -----------------------------------------------
    Atom  No    Charge         Core      Valence    Rydberg      Total
 -----------------------------------------------------------------------
      C    1   -0.31979      0.99969     2.31706    0.00304     3.31979
      C    2    0.06485      0.99960     1.92648    0.00907     2.93515
      N    3   -0.23255      0.99968     2.72313    0.00974     3.73255
      C    4   -0.03082      0.99948     2.02229    0.00905     3.03082
      C    5    0.09385      0.99968     1.89619    0.01028     2.90615
      N    6   -0.17744      0.99968     2.65098    0.02679     3.67744
      C    7   -0.31278      0.99971     2.30740    0.00566     3.31278
      C    8   -0.26697      0.99967     2.25675    0.01055     3.26697
      S    9    0.35018      4.99918     2.62432    0.02632     7.64982
      C   10   -0.69009      0.99951     2.65525    0.03534     3.69009
      C   11   -0.11984      0.99949     2.11157    0.00878     3.11984
      C   12   -0.09522      0.99949     2.08759    0.00813     3.09522
      C   13   -0.09842      0.99950     2.09086    0.00807     3.09842
      C   14   -0.09960      0.99948     2.09188    0.00825     3.09960
      C   15    0.05857      0.99945     1.93105    0.01093     2.94143
      C   16   -0.00802      0.99944     1.99886    0.00972     3.00802
      C   17   -0.00505      0.99942     1.99700    0.00863     3.00505
      C   18    0.06315      0.99943     1.92608    0.01134     2.93685
      C   19   -0.31889      0.99970     2.31550    0.00368     3.31889
      C   20   -0.21620      0.99968     2.20895    0.00758     3.21620
      C   21   -0.24799      0.99963     2.23924    0.00912     3.24799
      C   22    0.36828      0.99975     1.61427    0.01770     2.63172
      O   23   -0.33448      0.99977     3.31837    0.01634     4.33448
      O   24   -0.27291      0.99991     3.26257    0.01043     4.27291
      C   25    0.07410      0.99946     1.91553    0.01091     2.92590
      C   26    0.00009      0.99946     1.99248    0.00797     2.99991
      C   27    0.01061      0.99947     1.98078    0.00914     2.98939
      C   28    0.07220      0.99947     1.91780    0.01053     2.92780
      C   29   -0.31859      0.99970     2.31280    0.00609     3.31859
      C   30   -0.21693      0.99969     2.21026    0.00697     3.21693
      C   31   -0.29784      0.99972     2.29497    0.00315     3.29784
      C   32    0.06813      0.99946     1.92172    0.01070     2.93187
      C   33   -0.00217      0.99944     1.99471    0.00802     3.00217
      C   34   -0.00324      0.99943     1.99416    0.00965     3.00324
      C   35    0.06796      0.99943     1.92150    0.01111     2.93204
      C   36   -0.32091      0.99970     2.31749    0.00372     3.32091
      C   37   -0.21361      0.99970     2.20699    0.00692     3.21361
      C   38   -0.30037      0.99972     2.29749    0.00316     3.30037
      C   39    0.07116      0.99944     1.91822    0.01118     2.92884
      C   40    0.00656      0.99944     1.98565    0.00835     2.99344
      C   41    0.00280      0.99944     1.98854    0.00923     2.99720
      C   42    0.07265      0.99945     1.91742    0.01047     2.92735
      C   43   -0.32017      0.99970     2.31425    0.00622     3.32017
      C   44   -0.21234      0.99967     2.20530    0.00738     3.21234
      C   45   -0.24381      0.99963     2.23565    0.00854     3.24381
      C   46    0.37604      0.99977     1.60674    0.01744     2.62396
      O   47   -0.31107      0.99979     3.29725    0.01402     4.31107
      O   48   -0.32148      0.99992     3.31149    0.01007     4.32148
      N   49   -0.22240      0.99967     2.69499    0.02774     3.72240
      N   50   -0.20114      0.99967     2.67960    0.02187     3.70114
      N   51   -0.21439      0.99966     2.68719    0.02755     3.71439
      N   52   -0.19697      0.99966     2.67647    0.02083     3.69697
     Fe   53    0.59698      8.99575     3.37883    0.02845    12.40302
      H   54    0.11960      0.00000     0.37986    0.00054     0.38040
      H   55    0.11111      0.00000     0.38833    0.00056     0.38889
      H   56    0.11899      0.00000     0.38045    0.00057     0.38101
      H   57    0.11969      0.00000     0.37952    0.00079     0.38031
      H   58    0.11639      0.00000     0.38281    0.00080     0.38361
      H   59    0.11205      0.00000     0.38746    0.00049     0.38795
      H   60    0.11742      0.00000     0.38173    0.00085     0.38258
      H   61    0.10520      0.00000     0.39390    0.00090     0.39480
      H   62    0.12584      0.00000     0.37316    0.00100     0.37416
      H   63    0.11853      0.00000     0.38059    0.00088     0.38147
      H   64    0.21203      0.00000     0.28712    0.00085     0.28797
      H   65    0.19991      0.00000     0.29903    0.00106     0.30009
      H   66    0.20708      0.00000     0.29054    0.00238     0.29292
      H   67    0.11100      0.00000     0.38782    0.00117     0.38900
      H   68    0.11100      0.00000     0.38742    0.00158     0.38900
      H   69    0.11199      0.00000     0.38626    0.00175     0.38801
      H   70    0.11173      0.00000     0.38652    0.00175     0.38827
      H   71    0.11034      0.00000     0.38904    0.00062     0.38966
      H   72    0.11545      0.00000     0.38381    0.00073     0.38455
      H   73    0.11495      0.00000     0.38431    0.00075     0.38505
      H   74    0.10466      0.00000     0.39406    0.00127     0.39534
      H   75    0.11759      0.00000     0.38154    0.00087     0.38241
      H   76    0.12377      0.00000     0.37546    0.00077     0.37623
      H   77    0.11574      0.00000     0.38349    0.00078     0.38426
      H   78    0.11613      0.00000     0.38315    0.00072     0.38387
      H   79    0.11565      0.00000     0.38363    0.00072     0.38435
      H   80    0.10829      0.00000     0.39129    0.00043     0.39171
      H   81    0.11445      0.00000     0.38461    0.00094     0.38555
      H   82    0.10820      0.00000     0.39106    0.00075     0.39180
      H   83    0.10600      0.00000     0.39341    0.00058     0.39400
      H   84    0.10872      0.00000     0.39071    0.00057     0.39128
      H   85    0.10348      0.00000     0.39579    0.00072     0.39652
      H   86    0.11618      0.00000     0.38309    0.00073     0.38382
      H   87    0.11415      0.00000     0.38504    0.00081     0.38585
      H   88    0.11101      0.00000     0.38837    0.00063     0.38899
      H   89    0.11576      0.00000     0.38332    0.00091     0.38424
      H   90    0.10624      0.00000     0.39303    0.00073     0.39376
      H   91    0.10895      0.00000     0.39049    0.00056     0.39105
      H   92    0.10390      0.00000     0.39544    0.00065     0.39610
      H   93    0.10472      0.00000     0.39458    0.00071     0.39528
      H   94    0.11652      0.00000     0.38294    0.00054     0.38348
      H   95    0.11803      0.00000     0.38133    0.00064     0.38197
      H   96    0.11053      0.00000     0.38897    0.00049     0.38947
      H   97    0.10775      0.00000     0.39119    0.00107     0.39225
      H   98    0.11178      0.00000     0.38736    0.00086     0.38822
      H   99    0.12636      0.00000     0.37291    0.00072     0.37364
      H  100    0.25999      0.00000     0.23887    0.00114     0.24001
      H  101    0.26081      0.00000     0.23778    0.00141     0.23919
      H  102    0.21643      0.00000     0.28280    0.00077     0.28357
      H  103    0.12425      0.00000     0.37504    0.00071     0.37575
 =======================================================================
   * Total *    1.00000     64.97455   139.36031    0.66515   205.00000

 Normal termination of Gaussian 16 at Fri Sep 23 07:49:18 2022.
 Gaussian 16:  ES64L-G16RevA.03 25-Dec-2016

 ----------------------------------------------------------------------
 # PBE1PBE/def2TZVP empiricaldispersion=GD3BJ int=(grid=ultrafine) geom
 =check guess=read scrf=(smd,solvent=Chloroform)
 ----------------------------------------------------------------------

 ---------------
 451c_III_D_solv
 ---------------
 Structure from the checkpoint file:  "451c_III_D.chk"
 Charge =  1 Multiplicity = 2

                         Standard orientation:
 ---------------------------------------------------------------------
 Center     Atomic      Atomic             Coordinates (Angstroms)
 Number     Number       Type             X           Y           Z
 ---------------------------------------------------------------------
      1          6           0        3.279414   -0.858909    5.033445
      2          6           0        2.263317   -0.513617    3.957345
      3          7           0        0.931154   -0.455993    4.196525
      4          6           0        2.466145   -0.341152    2.599547
      5          6           0        0.302271   -0.249437    3.010033
      6          7           0        1.243531   -0.171292    2.023571
      7          6           0       -0.815655    2.314888   -2.804885
      8          6           0        0.513037    1.571128   -2.986873
      9         16           0        0.567587   -0.084816   -2.243525
     10          6           0       -0.961251   -0.904624   -2.748773
     11          6           0       -2.521303   -0.043649    0.543992
     12          6           0        0.821877   -3.476345    0.053321
     13          6           0        4.165297   -0.087634   -0.748767
     14          6           0        0.947664    3.315032    0.370128
     15          6           0       -1.910592   -1.277372    0.448798
     16          6           0       -2.549586   -2.494156    0.566059
     17          6           0       -1.578979   -3.480980    0.477237
     18          6           0       -0.383977   -2.841611    0.253451
     19          6           0       -1.765758   -4.981878    0.570674
     20          6           0       -4.030032   -2.689748    0.716789
     21          6           0       -4.647874   -2.624878   -0.660418
     22          6           0       -6.150766   -2.810787   -0.575235
     23          8           0       -6.653495   -3.177065    0.483308
     24          8           0       -6.731009   -3.151437   -1.677202
     25          6           0        2.034253   -2.864713   -0.187073
     26          6           0        3.225804   -3.532955   -0.461812
     27          6           0        4.178005   -2.560248   -0.785988
     28          6           0        3.556855   -1.317575   -0.599608
     29          6           0        3.413613   -5.034779   -0.468515
     30          6           0        5.596933   -2.771567   -1.275871
     31          6           0        5.668621   -3.389542   -2.669332
     32          6           0        3.572926    1.147815   -0.535748
     33          6           0        4.233638    2.369899   -0.563091
     34          6           0        3.340337    3.321715   -0.080280
     35          6           0        2.126328    2.690284    0.044791
     36          6           0        5.697770    2.578058   -0.904999
     37          6           0        3.622486    4.767608    0.305323
     38          6           0        4.082238    5.619372   -0.872953
     39          6           0       -0.275548    2.700588    0.477915
     40          6           0       -1.474995    3.369151    0.699780
     41          6           0       -2.482507    2.414148    0.660263
     42          6           0       -1.865616    1.173353    0.511090
     43          6           0       -1.647875    4.861472    0.900252
     44          6           0       -3.968433    2.652376    0.775108
     45          6           0       -4.669282    2.639124   -0.573818
     46          6           0       -6.177727    2.777348   -0.376329
     47          8           0       -6.926245    2.287789   -1.226566
     48          8           0       -6.675016    3.662972    0.463755
     49          7           0       -0.592729   -1.498170    0.255888
     50          7           0        2.252575   -1.521120   -0.253342
     51          7           0        2.284836    1.360106   -0.166639
     52          7           0       -0.516975    1.354414    0.356085
     53         26           0        0.858666   -0.051523    0.091682
     54          1           0        4.032987   -0.100123    5.069080
     55          1           0        2.788017   -0.918391    5.982071
     56          1           0        3.732629   -1.801320    4.806822
     57          1           0        3.409672   -0.341204    2.094911
     58          1           0       -0.755142   -0.162415    2.871454
     59          1           0       -0.864810    3.131286   -3.494796
     60          1           0       -1.628297    1.643438   -2.988374
     61          1           0       -0.880934    2.688887   -1.804503
     62          1           0        1.241560    2.148850   -2.457355
     63          1           0        0.615232    1.417401   -4.040830
     64          1           0       -1.339888   -1.885677   -2.551115
     65          1           0       -0.253990   -1.485470   -3.303119
     66          1           0       -1.141785   -0.819347   -1.697566
     67          1           0       -3.585742   -0.027435    0.651719
     68          1           0        0.817569   -4.545786    0.087636
     69          1           0        5.189753   -0.087549   -1.057620
     70          1           0        0.985525    4.368254    0.555030
     71          1           0       -0.829382   -5.443964    0.804292
     72          1           0       -2.124175   -5.355668   -0.365658
     73          1           0       -2.475601   -5.205791    1.339365
     74          1           0       -4.403726   -1.853238    1.269511
     75          1           0       -4.180857   -3.683636    1.083311
     76          1           0       -4.266994   -3.463041   -1.205682
     77          1           0       -4.483166   -1.631542   -1.022434
     78          1           0        3.630719   -5.362636   -1.463641
     79          1           0        4.225324   -5.295606    0.178010
     80          1           0        2.517569   -5.507816   -0.124654
     81          1           0        6.033121   -3.489363   -0.612992
     82          1           0        6.025906   -1.795348   -1.364629
     83          1           0        5.830646   -2.618653   -3.393471
     84          1           0        6.476313   -4.090306   -2.707602
     85          1           0        4.749171   -3.892971   -2.883972
     86          1           0        5.838276    3.569001   -1.283402
     87          1           0        6.291947    2.444651   -0.025194
     88          1           0        5.995208    1.867259   -1.647424
     89          1           0        4.447073    4.736077    0.986470
     90          1           0        2.685259    5.178009    0.618495
     91          1           0        3.735100    6.623282   -0.744265
     92          1           0        5.151166    5.614958   -0.920638
     93          1           0        3.683057    5.217562   -1.780754
     94          1           0       -2.542829    5.185681    0.411534
     95          1           0       -1.715297    5.075349    1.946488
     96          1           0       -0.807548    5.376937    0.484263
     97          1           0       -4.393709    1.888978    1.392574
     98          1           0       -4.502184    1.670912   -0.997544
     99          1           0       -4.346190    3.514965   -1.096709
    100          1           0       -7.218388   -2.579392    0.978567
    101          1           0       -7.870027    2.459973   -1.191511
    102          1           0        0.488891   -0.549029    5.088572
    103          1           0       -4.130811    3.602745    1.239147
 ---------------------------------------------------------------------

 SCF Done:  E(UPBE1PBE) =  -3881.58054237     A.U. after   51 cycles

 Alpha virt. eigenvalues --    1.04622   1.04969   1.05197   1.05516   1.05773
 Alpha virt. eigenvalues --    1.05836   1.06050   1.06631   1.07053   1.07420
 Alpha virt. eigenvalues --    1.07822   1.08102   1.08509   1.08871   1.08902

  Beta  occ. eigenvalues -- -256.42731 -89.09361 -30.19140 -26.02184 -26.02063
  Beta  occ. eigenvalues --  -26.01206 -19.28591 -19.26824 -19.19238 -19.18738
  Beta  occ. eigenvalues --  -14.47397 -14.44125 -14.41227 -14.40641 -14.40491
  Beta  occ. eigenvalues --  -14.40326 -10.37451 -10.36826 -10.31483 -10.28658
  Beta  occ. eigenvalues --  -10.27749 -10.27403 -10.27316 -10.27296 -10.27266
  Beta  occ. eigenvalues --  -10.27133 -10.27024 -10.26766 -10.26488 -10.26383
  Beta  occ. eigenvalues --  -10.25301 -10.25085 -10.25059 -10.24980 -10.24928
  Beta  occ. eigenvalues --  -10.24817 -10.24659 -10.24538 -10.24462 -10.24365
  Beta  occ. eigenvalues --  -10.24212 -10.24111 -10.24046 -10.23855 -10.23755
  Beta  occ. eigenvalues --  -10.23646 -10.23517 -10.23049 -10.23031 -10.22720
  Beta  occ. eigenvalues --  -10.22624 -10.22560 -10.22396 -10.22223 -10.21225
  Beta  occ. eigenvalues --  -10.20922 -10.20867  -8.06795  -6.00558  -6.00104
  Beta  occ. eigenvalues --   -5.99623  -3.51451  -2.26783  -2.26565  -2.26288
  Beta  occ. eigenvalues --   -1.19245  -1.18835  -1.08306  -1.02834  -1.02053
  Beta  occ. eigenvalues --   -1.02014  -1.01366  -1.00678  -1.00516  -0.94252
  Beta  occ. eigenvalues --   -0.89182  -0.87821  -0.86501  -0.86080  -0.85216
  Beta  occ. eigenvalues --   -0.84932  -0.84517  -0.84293  -0.82280  -0.81965
  Beta  occ. eigenvalues --   -0.81318  -0.80978  -0.79916  -0.79183  -0.78830
  Beta  occ. eigenvalues --   -0.77150  -0.75137  -0.74396  -0.73854  -0.73499
  Beta  occ. eigenvalues --   -0.72475  -0.72265  -0.71465  -0.71186  -0.69663
  Beta  occ. eigenvalues --   -0.69422  -0.67658  -0.67292  -0.66317  -0.65632
  Beta  occ. eigenvalues --   -0.65476  -0.64439  -0.62714  -0.62566  -0.61925
  Beta  occ. eigenvalues --   -0.59807  -0.58581  -0.58384  -0.58177  -0.56314
  Beta  occ. eigenvalues --   -0.55535  -0.55326  -0.55204  -0.54396  -0.54260
  Beta  occ. eigenvalues --   -0.53117  -0.52837  -0.52613  -0.52046  -0.51832
  Beta  occ. eigenvalues --   -0.51620  -0.51400  -0.50649  -0.50443  -0.49897
  Beta  occ. eigenvalues --   -0.49693  -0.49236  -0.48989  -0.48907  -0.48414
  Beta  occ. eigenvalues --   -0.47934  -0.47741  -0.47503  -0.47413  -0.47042
  Beta  occ. eigenvalues --   -0.46860  -0.46581  -0.46307  -0.45856  -0.45749
  Beta  occ. eigenvalues --   -0.45221  -0.45027  -0.44799  -0.44425  -0.44137
  Beta  occ. eigenvalues --   -0.44006  -0.43804  -0.43402  -0.43216  -0.43191
  Beta  occ. eigenvalues --   -0.43066  -0.42988  -0.42438  -0.42351  -0.42145
  Beta  occ. eigenvalues --   -0.41182  -0.41026  -0.41025  -0.40683  -0.40655
  Beta  occ. eigenvalues --   -0.40414  -0.40000  -0.39753  -0.39469  -0.39296
  Beta  occ. eigenvalues --   -0.39045  -0.38960  -0.38833  -0.38674  -0.38453
  Beta  occ. eigenvalues --   -0.38110  -0.37837  -0.37460  -0.37354  -0.36940
  Beta  occ. eigenvalues --   -0.36316  -0.35996  -0.35745  -0.35670  -0.35345
  Beta  occ. eigenvalues --   -0.34954  -0.34205  -0.33868  -0.33581  -0.32538
  Beta  occ. eigenvalues --   -0.31854  -0.31750  -0.30146  -0.29508  -0.29375
  Beta  occ. eigenvalues --   -0.28938  -0.28871  -0.26739  -0.26313  -0.26001
  Beta  occ. eigenvalues --   -0.25689  -0.24614  -0.24229  -0.23224  -0.22559
  Beta virt. eigenvalues --   -0.12193  -0.10708  -0.08790  -0.07021  -0.05522
  Beta virt. eigenvalues --   -0.04708  -0.04206  -0.02676  -0.02319  -0.01237
  Beta virt. eigenvalues --    0.00796   0.01479   0.01916   0.02510   0.02895

 Mulliken charges and spin densities:
               1          2
     1  C   -0.382676  -0.000308
     2  C    0.116911  -0.000797
     3  N   -0.180502   0.000476
     4  C   -0.217024   0.000906
     5  C   -0.028141   0.007106
     6  N    0.092177  -0.034585
     7  C   -0.394896   0.000059
     8  C   -0.103198   0.003330
     9  S    0.066236  -0.027609
    10  C   -0.736131  -0.003090
    11  C   -0.587932  -0.007571
    12  C   -0.538437  -0.002385
    13  C   -0.505634  -0.004357
    14  C   -0.525247  -0.006650
    15  C    0.174715   0.003674
    16  C    0.093828   0.002305
    17  C   -0.108697  -0.002604
    18  C    0.284391   0.004365
    19  C   -0.425703  -0.000283
    20  C   -0.278801  -0.000353
    21  C   -0.194466   0.000138
    22  C    0.271620   0.000067
    23  O   -0.328677   0.000002
    24  O   -0.423378   0.000035
    25  C    0.307983   0.004633
    26  C   -0.103673   0.009277
    27  C   -0.074765   0.014405
    28  C    0.270917   0.005381
    29  C   -0.402553  -0.000779
    30  C   -0.151331  -0.001216
    31  C   -0.404825   0.000674
    32  C    0.218730   0.003602
    33  C   -0.059082   0.005490
    34  C   -0.130024  -0.005178
    35  C    0.297853   0.007256
    36  C   -0.418753  -0.000554
    37  C   -0.126161  -0.000089
    38  C   -0.422570  -0.000184
    39  C    0.184058   0.004864
    40  C    0.000668   0.009097
    41  C    0.044265   0.019038
    42  C    0.293178   0.004198
    43  C   -0.430617  -0.001044
    44  C   -0.434912  -0.002361
    45  C   -0.090683   0.000849
    46  C    0.248726   0.000188
    47  O   -0.294847   0.000008
    48  O   -0.497045  -0.000024
    49  N   -0.072857  -0.030776
    50  N    0.000558  -0.042198
    51  N    0.039655  -0.035746
    52  N    0.091891  -0.036727
    53  Fe  -0.383883   1.134358
    54  H    0.161324   0.000017
    55  H    0.149080  -0.000049
    56  H    0.160704   0.000013
    57  H    0.191323  -0.000225
    58  H    0.212483  -0.000405
    59  H    0.143653   0.000453
    60  H    0.150962   0.000096
    61  H    0.115459   0.000129
    62  H    0.157893  -0.000110
    63  H    0.152400  -0.001014
    64  H    0.298705   0.000214
    65  H    0.284083   0.000887
    66  H    0.230566  -0.001389
    67  H    0.146897   0.000238
    68  H    0.140928  -0.000017
    69  H    0.146003  -0.000006
    70  H    0.140426   0.000204
    71  H    0.147554   0.000001
    72  H    0.161397  -0.000044
    73  H    0.159362  -0.000111
    74  H    0.121030   0.000053
    75  H    0.133535  -0.000048
    76  H    0.151628  -0.000012
    77  H    0.144035   0.000044
    78  H    0.155033   0.000411
    79  H    0.153220   0.000202
    80  H    0.141090  -0.000025
    81  H    0.125239   0.000452
    82  H    0.117725   0.000034
    83  H    0.133157   0.000043
    84  H    0.134546   0.000041
    85  H    0.138887  -0.000061
    86  H    0.158260   0.000002
    87  H    0.156080   0.000363
    88  H    0.149806   0.000088
    89  H    0.133222  -0.000155
    90  H    0.115021  -0.000017
    91  H    0.139557  -0.000034
    92  H    0.133717   0.000009
    93  H    0.138153   0.000000
    94  H    0.160523   0.000151
    95  H    0.165146   0.000557
    96  H    0.146617   0.000067
    97  H    0.140202   0.000476
    98  H    0.141290   0.000026
    99  H    0.162289  -0.000013
   100  H    0.393462   0.000002
   101  H    0.383435   0.000034
   102  H    0.290071   0.000014
   103  H    0.152581   0.000102
 Sum of Mulliken charges =   1.00000   1.00000

 Dipole moment (field-independent basis, Debye):
    X=              7.2061    Y=             -1.5635    Z=              8.2469  Tot=             11.0627
 Quadrupole moment (field-independent basis, Debye-Ang):
   XX=           -274.9926   YY=           -284.1270   ZZ=           -280.6242
   XY=             -2.9984   XZ=            -14.4290   YZ=            -21.8406

 Normal termination of Gaussian 16 at Sun Sep 25 08:00:38 2022.
