 Gaussian 16, Revision A.03,

 ----------------------------------------------------------------------
 # PBE1PBE/def2TZVP empiricaldispersion=GD3BJ int=(grid=ultrafine) geom
 =check pop=nbo
 ----------------------------------------------------------------------

 ----------
 451c_III_H
 ----------
 Structure from the checkpoint file:  "451c_III_H.chk"
 Charge =  1 Multiplicity = 6

 SCF Done:  E(UPBE1PBE) =  -3881.45804592     A.U. after   30 cycles

 Summary of Natural Population Analysis:

                                       Natural Population
                Natural  -----------------------------------------------
    Atom  No    Charge         Core      Valence    Rydberg      Total
 -----------------------------------------------------------------------
      C    1   -0.31997      0.99970     2.31693    0.00334     3.31997
      C    2    0.07058      0.99959     1.92090    0.00893     2.92942
      N    3   -0.22919      0.99968     2.72017    0.00934     3.72919
      C    4   -0.02797      0.99947     2.01944    0.00906     3.02797
      C    5    0.10703      0.99965     1.88296    0.01036     2.89297
      N    6   -0.16431      0.99969     2.64175    0.02287     3.66431
      C    7   -0.31233      0.99972     2.30639    0.00623     3.31233
      C    8   -0.26204      0.99967     2.25142    0.01096     3.26204
      S    9    0.38451      4.99886     2.58661    0.03001     7.61549
      C   10   -0.67174      0.99952     2.63788    0.03435     3.67174
      C   11   -0.11642      0.99948     2.10850    0.00845     3.11642
      C   12   -0.09260      0.99949     2.08543    0.00768     3.09260
      C   13   -0.09175      0.99937     2.08383    0.00855     3.09175
      C   14   -0.09749      0.99947     2.09013    0.00788     3.09749
      C   15    0.06576      0.99944     1.92429    0.01050     2.93424
      C   16    0.00306      0.99944     1.98807    0.00943     2.99694
      C   17    0.00545      0.99942     1.98669    0.00845     2.99455
      C   18    0.07115      0.99942     1.91881    0.01062     2.92885
      C   19   -0.31927      0.99970     2.31350    0.00606     3.31927
      C   20   -0.21645      0.99968     2.20919    0.00759     3.21645
      C   21   -0.24759      0.99963     2.23885    0.00911     3.24759
      C   22    0.36832      0.99975     1.61426    0.01768     2.63168
      O   23   -0.33447      0.99977     3.31837    0.01632     4.33447
      O   24   -0.27239      0.99991     3.26205    0.01043     4.27239
      C   25    0.07913      0.99945     1.91093    0.01049     2.92087
      C   26    0.00728      0.99945     1.98521    0.00806     2.99272
      C   27    0.01353      0.99947     1.97804    0.00896     2.98647
      C   28    0.07705      0.99946     1.91284    0.01065     2.92295
      C   29   -0.31852      0.99970     2.31275    0.00607     3.31852
      C   30   -0.21673      0.99969     2.21003    0.00700     3.21673
      C   31   -0.29767      0.99972     2.29481    0.00314     3.29767
      C   32    0.07556      0.99945     1.91430    0.01068     2.92444
      C   33    0.01137      0.99944     1.98102    0.00817     2.98863
      C   34    0.01637      0.99942     1.97472    0.00948     2.98363
      C   35    0.07336      0.99942     1.91664    0.01058     2.92664
      C   36   -0.32128      0.99970     2.31788    0.00369     3.32128
      C   37   -0.21417      0.99970     2.20759    0.00689     3.21417
      C   38   -0.29964      0.99972     2.29677    0.00315     3.29964
      C   39    0.07697      0.99943     1.91273    0.01087     2.92303
      C   40    0.01260      0.99943     1.97980    0.00817     2.98740
      C   41    0.00697      0.99944     1.98451    0.00909     2.99303
      C   42    0.07968      0.99944     1.91058    0.01030     2.92032
      C   43   -0.31982      0.99970     2.31389    0.00623     3.31982
      C   44   -0.21206      0.99967     2.20499    0.00740     3.21206
      C   45   -0.24371      0.99963     2.23554    0.00854     3.24371
      C   46    0.37604      0.99977     1.60674    0.01744     2.62396
      O   47   -0.31103      0.99979     3.29721    0.01402     4.31103
      O   48   -0.32157      0.99992     3.31158    0.01006     4.32157
      N   49   -0.19417      0.99969     2.67200    0.02247     3.69417
      N   50   -0.18089      0.99969     2.65907    0.02213     3.68089
      N   51   -0.17789      0.99968     2.65589    0.02233     3.67789
      N   52   -0.18510      0.99968     2.66409    0.02133     3.68510
     Fe   53    2.24976      8.99575     1.70068    0.05380    10.75024
      H   54    0.11959      0.00000     0.37983    0.00058     0.38041
      H   55    0.11117      0.00000     0.38826    0.00057     0.38883
      H   56    0.11900      0.00000     0.38039    0.00061     0.38100
      H   57    0.12073      0.00000     0.37852    0.00074     0.37927
      H   58    0.11703      0.00000     0.38217    0.00080     0.38297
      H   59    0.11166      0.00000     0.38785    0.00050     0.38834
      H   60    0.11758      0.00000     0.38160    0.00083     0.38242
      H   61    0.10389      0.00000     0.39521    0.00090     0.39611
      H   62    0.12416      0.00000     0.37492    0.00092     0.37584
      H   63    0.11995      0.00000     0.37922    0.00083     0.38005
      H   64    0.21001      0.00000     0.28918    0.00082     0.28999
      H   65    0.20014      0.00000     0.29881    0.00105     0.29986
      H   66    0.20989      0.00000     0.28804    0.00207     0.29011
      H   67    0.11179      0.00000     0.38708    0.00113     0.38821
      H   68    0.11178      0.00000     0.38668    0.00154     0.38822
      H   69    0.11263      0.00000     0.38566    0.00171     0.38737
      H   70    0.11265      0.00000     0.38564    0.00170     0.38735
      H   71    0.11090      0.00000     0.38862    0.00048     0.38910
      H   72    0.11646      0.00000     0.38289    0.00065     0.38354
      H   73    0.11547      0.00000     0.38390    0.00063     0.38453
      H   74    0.10511      0.00000     0.39363    0.00125     0.39489
      H   75    0.11777      0.00000     0.38136    0.00087     0.38223
      H   76    0.12382      0.00000     0.37542    0.00077     0.37618
      H   77    0.11607      0.00000     0.38315    0.00078     0.38393
      H   78    0.11648      0.00000     0.38282    0.00071     0.38352
      H   79    0.11584      0.00000     0.38345    0.00071     0.38416
      H   80    0.10812      0.00000     0.39145    0.00042     0.39188
      H   81    0.11444      0.00000     0.38463    0.00093     0.38556
      H   82    0.10794      0.00000     0.39132    0.00074     0.39206
      H   83    0.10606      0.00000     0.39335    0.00058     0.39394
      H   84    0.10871      0.00000     0.39073    0.00057     0.39129
      H   85    0.10358      0.00000     0.39570    0.00072     0.39642
      H   86    0.11666      0.00000     0.38261    0.00073     0.38334
      H   87    0.11526      0.00000     0.38396    0.00078     0.38474
      H   88    0.11181      0.00000     0.38757    0.00061     0.38819
      H   89    0.11657      0.00000     0.38254    0.00089     0.38343
      H   90    0.10682      0.00000     0.39247    0.00071     0.39318
      H   91    0.10959      0.00000     0.38986    0.00055     0.39041
      H   92    0.10405      0.00000     0.39530    0.00065     0.39595
      H   93    0.10500      0.00000     0.39431    0.00069     0.39500
      H   94    0.11679      0.00000     0.38267    0.00054     0.38321
      H   95    0.11811      0.00000     0.38126    0.00063     0.38189
      H   96    0.11038      0.00000     0.38913    0.00049     0.38962
      H   97    0.10755      0.00000     0.39139    0.00106     0.39245
      H   98    0.11184      0.00000     0.38730    0.00086     0.38816
      H   99    0.12648      0.00000     0.37280    0.00072     0.37352
      H  100    0.26003      0.00000     0.23884    0.00114     0.23997
      H  101    0.26078      0.00000     0.23780    0.00141     0.23922
      H  102    0.21631      0.00000     0.28288    0.00082     0.28369
      H  103    0.12426      0.00000     0.37503    0.00071     0.37574
 =======================================================================
   * Total *    3.00001     64.97403   137.34843    0.67754   202.99999

 Normal termination of Gaussian 16 at Sat Oct  1 05:01:56 2022.
 Gaussian 16:  ES64L-G16RevA.03 25-Dec-2016

 ----------------------------------------------------------------------
 # PBE1PBE/def2TZVP empiricaldispersion=GD3BJ int=(grid=ultrafine) geom
 =check guess=read scrf=(smd,solvent=Chloroform)
 ----------------------------------------------------------------------

 ---------------
 451c_III_H_solv
 ---------------
 Structure from the checkpoint file:  "451c_III_H.chk"
 Charge =  1 Multiplicity = 6

                         Standard orientation:
 ---------------------------------------------------------------------
 Center     Atomic      Atomic             Coordinates (Angstroms)
 Number     Number       Type             X           Y           Z
 ---------------------------------------------------------------------
      1          6           0        3.279414   -0.858909    5.033445
      2          6           0        2.263317   -0.513617    3.957345
      3          7           0        0.931154   -0.455993    4.196525
      4          6           0        2.466145   -0.341152    2.599547
      5          6           0        0.302271   -0.249437    3.010033
      6          7           0        1.243531   -0.171292    2.023571
      7          6           0       -0.815655    2.314888   -2.804885
      8          6           0        0.513037    1.571128   -2.986873
      9         16           0        0.567587   -0.084816   -2.243525
     10          6           0       -0.961251   -0.904624   -2.748773
     11          6           0       -2.521303   -0.043649    0.543992
     12          6           0        0.821877   -3.476345    0.053321
     13          6           0        4.165297   -0.087634   -0.748767
     14          6           0        0.947664    3.315032    0.370128
     15          6           0       -1.910592   -1.277372    0.448798
     16          6           0       -2.549586   -2.494156    0.566059
     17          6           0       -1.578979   -3.480980    0.477237
     18          6           0       -0.383977   -2.841611    0.253451
     19          6           0       -1.765758   -4.981878    0.570674
     20          6           0       -4.030032   -2.689748    0.716789
     21          6           0       -4.647874   -2.624878   -0.660418
     22          6           0       -6.150766   -2.810787   -0.575235
     23          8           0       -6.653495   -3.177065    0.483308
     24          8           0       -6.731009   -3.151437   -1.677202
     25          6           0        2.034253   -2.864713   -0.187073
     26          6           0        3.225804   -3.532955   -0.461812
     27          6           0        4.178005   -2.560248   -0.785988
     28          6           0        3.556855   -1.317575   -0.599608
     29          6           0        3.413613   -5.034779   -0.468515
     30          6           0        5.596933   -2.771567   -1.275871
     31          6           0        5.668621   -3.389542   -2.669332
     32          6           0        3.572926    1.147815   -0.535748
     33          6           0        4.233638    2.369899   -0.563091
     34          6           0        3.340337    3.321715   -0.080280
     35          6           0        2.126328    2.690284    0.044791
     36          6           0        5.697770    2.578058   -0.904999
     37          6           0        3.622486    4.767608    0.305323
     38          6           0        4.082238    5.619372   -0.872953
     39          6           0       -0.275548    2.700588    0.477915
     40          6           0       -1.474995    3.369151    0.699780
     41          6           0       -2.482507    2.414148    0.660263
     42          6           0       -1.865616    1.173353    0.511090
     43          6           0       -1.647875    4.861472    0.900252
     44          6           0       -3.968433    2.652376    0.775108
     45          6           0       -4.669282    2.639124   -0.573818
     46          6           0       -6.177727    2.777348   -0.376329
     47          8           0       -6.926245    2.287789   -1.226566
     48          8           0       -6.675016    3.662972    0.463755
     49          7           0       -0.592729   -1.498170    0.255888
     50          7           0        2.252575   -1.521120   -0.253342
     51          7           0        2.284836    1.360106   -0.166639
     52          7           0       -0.516975    1.354414    0.356085
     53         26           0        0.858666   -0.051523    0.091682
     54          1           0        4.032987   -0.100123    5.069080
     55          1           0        2.788017   -0.918391    5.982071
     56          1           0        3.732629   -1.801320    4.806822
     57          1           0        3.409672   -0.341204    2.094911
     58          1           0       -0.755142   -0.162415    2.871454
     59          1           0       -0.864810    3.131286   -3.494796
     60          1           0       -1.628297    1.643438   -2.988374
     61          1           0       -0.880934    2.688887   -1.804503
     62          1           0        1.241560    2.148850   -2.457355
     63          1           0        0.615232    1.417401   -4.040830
     64          1           0       -1.339888   -1.885677   -2.551115
     65          1           0       -0.253990   -1.485470   -3.303119
     66          1           0       -1.141785   -0.819347   -1.697566
     67          1           0       -3.585742   -0.027435    0.651719
     68          1           0        0.817569   -4.545786    0.087636
     69          1           0        5.189753   -0.087549   -1.057620
     70          1           0        0.985525    4.368254    0.555030
     71          1           0       -0.829382   -5.443964    0.804292
     72          1           0       -2.124175   -5.355668   -0.365658
     73          1           0       -2.475601   -5.205791    1.339365
     74          1           0       -4.403726   -1.853238    1.269511
     75          1           0       -4.180857   -3.683636    1.083311
     76          1           0       -4.266994   -3.463041   -1.205682
     77          1           0       -4.483166   -1.631542   -1.022434
     78          1           0        3.630719   -5.362636   -1.463641
     79          1           0        4.225324   -5.295606    0.178010
     80          1           0        2.517569   -5.507816   -0.124654
     81          1           0        6.033121   -3.489363   -0.612992
     82          1           0        6.025906   -1.795348   -1.364629
     83          1           0        5.830646   -2.618653   -3.393471
     84          1           0        6.476313   -4.090306   -2.707602
     85          1           0        4.749171   -3.892971   -2.883972
     86          1           0        5.838276    3.569001   -1.283402
     87          1           0        6.291947    2.444651   -0.025194
     88          1           0        5.995208    1.867259   -1.647424
     89          1           0        4.447073    4.736077    0.986470
     90          1           0        2.685259    5.178009    0.618495
     91          1           0        3.735100    6.623282   -0.744265
     92          1           0        5.151166    5.614958   -0.920638
     93          1           0        3.683057    5.217562   -1.780754
     94          1           0       -2.542829    5.185681    0.411534
     95          1           0       -1.715297    5.075349    1.946488
     96          1           0       -0.807548    5.376937    0.484263
     97          1           0       -4.393709    1.888978    1.392574
     98          1           0       -4.502184    1.670912   -0.997544
     99          1           0       -4.346190    3.514965   -1.096709
    100          1           0       -7.218388   -2.579392    0.978567
    101          1           0       -7.870027    2.459973   -1.191511
    102          1           0        0.488891   -0.549029    5.088572
    103          1           0       -4.130811    3.602745    1.239147
 ---------------------------------------------------------------------

 SCF Done:  E(UPBE1PBE) =  -3881.56683177     A.U. after   15 cycles

 Alpha virt. eigenvalues --    1.03794   1.03977   1.04398   1.04516   1.04826
 Alpha virt. eigenvalues --    1.05035   1.05264   1.05501   1.05666   1.05911
 Alpha virt. eigenvalues --    1.06539   1.06881   1.07268   1.07657   1.07985

  Beta  occ. eigenvalues -- -256.46275 -89.07449 -30.19478 -26.02682 -26.02670
  Beta  occ. eigenvalues --  -26.02619 -19.28576 -19.26840 -19.19254 -19.18724
  Beta  occ. eigenvalues --  -14.47363 -14.42397 -14.39638 -14.39513 -14.39388
  Beta  occ. eigenvalues --  -14.38956 -10.37435 -10.36849 -10.31443 -10.28576
  Beta  occ. eigenvalues --  -10.27699 -10.27397 -10.27372 -10.27364 -10.27285
  Beta  occ. eigenvalues --  -10.27222 -10.27129 -10.26993 -10.26218 -10.25966
  Beta  occ. eigenvalues --  -10.25335 -10.25125 -10.25039 -10.25018 -10.24913
  Beta  occ. eigenvalues --  -10.24872 -10.24666 -10.24611 -10.24588 -10.24519
  Beta  occ. eigenvalues --  -10.24321 -10.24308 -10.24182 -10.24087 -10.23819
  Beta  occ. eigenvalues --  -10.23708 -10.23476 -10.23197 -10.23019 -10.22696
  Beta  occ. eigenvalues --  -10.22550 -10.22376 -10.22362 -10.22236 -10.20985
  Beta  occ. eigenvalues --  -10.20977 -10.20907  -8.05118  -5.98921  -5.98409
  Beta  occ. eigenvalues --   -5.97817  -3.48728  -2.23314  -2.23021  -2.22943
  Beta  occ. eigenvalues --   -1.19230  -1.18851  -1.08075  -1.02706  -1.02065
  Beta  occ. eigenvalues --   -1.01996  -1.01050  -1.00507  -1.00405  -0.93890
  Beta  occ. eigenvalues --   -0.88428  -0.87881  -0.86554  -0.86023  -0.85323
  Beta  occ. eigenvalues --   -0.84897  -0.84582  -0.84275  -0.82190  -0.81951
  Beta  occ. eigenvalues --   -0.81305  -0.80548  -0.79952  -0.79221  -0.78891
  Beta  occ. eigenvalues --   -0.77163  -0.75161  -0.74456  -0.73753  -0.73522
  Beta  occ. eigenvalues --   -0.72424  -0.72241  -0.71231  -0.70950  -0.69696
  Beta  occ. eigenvalues --   -0.69432  -0.67510  -0.67318  -0.66302  -0.65674
  Beta  occ. eigenvalues --   -0.65500  -0.64344  -0.62644  -0.62235  -0.61847
  Beta  occ. eigenvalues --   -0.59822  -0.58636  -0.58324  -0.58109  -0.56359
  Beta  occ. eigenvalues --   -0.55533  -0.55315  -0.55143  -0.54291  -0.54055
  Beta  occ. eigenvalues --   -0.53109  -0.52802  -0.52582  -0.52034  -0.51765
  Beta  occ. eigenvalues --   -0.51562  -0.51234  -0.50574  -0.50432  -0.49789
  Beta  occ. eigenvalues --   -0.49674  -0.49247  -0.49023  -0.48913  -0.48407
  Beta  occ. eigenvalues --   -0.47911  -0.47672  -0.47375  -0.47358  -0.47005
  Beta  occ. eigenvalues --   -0.46659  -0.46290  -0.46255  -0.45776  -0.45642
  Beta  occ. eigenvalues --   -0.45235  -0.44968  -0.44714  -0.44428  -0.44048
  Beta  occ. eigenvalues --   -0.43991  -0.43786  -0.43413  -0.43238  -0.43165
  Beta  occ. eigenvalues --   -0.42973  -0.42896  -0.42419  -0.42302  -0.42168
  Beta  occ. eigenvalues --   -0.41185  -0.41032  -0.40945  -0.40695  -0.40626
  Beta  occ. eigenvalues --   -0.40418  -0.39996  -0.39556  -0.39416  -0.39181
  Beta  occ. eigenvalues --   -0.39014  -0.38998  -0.38690  -0.38479  -0.38311
  Beta  occ. eigenvalues --   -0.38038  -0.37754  -0.37396  -0.37141  -0.36884
  Beta  occ. eigenvalues --   -0.36334  -0.36020  -0.35728  -0.35492  -0.35323
  Beta  occ. eigenvalues --   -0.35060  -0.34179  -0.33628  -0.33246  -0.32523
  Beta  occ. eigenvalues --   -0.31859  -0.31661  -0.29172  -0.29043  -0.28871
  Beta  occ. eigenvalues --   -0.27169  -0.26719  -0.25824  -0.25712  -0.25415
  Beta  occ. eigenvalues --   -0.23780  -0.23270  -0.22460
  Beta virt. eigenvalues --   -0.12663  -0.12569  -0.10284  -0.09284  -0.09006
  Beta virt. eigenvalues --   -0.05904  -0.04753  -0.04235  -0.03595  -0.02558
  Beta virt. eigenvalues --   -0.02299  -0.00820   0.00836   0.01492   0.02096

 Mulliken charges and spin densities:
               1          2
     1  C   -0.383259   0.001144
     2  C    0.115585   0.007586
     3  N   -0.180114   0.004008
     4  C   -0.214614   0.000777
     5  C   -0.023009   0.018782
     6  N    0.062937   0.049914
     7  C   -0.391919   0.000427
     8  C   -0.107811   0.009953
     9  S    0.010105   0.088443
    10  C   -0.743078   0.019335
    11  C   -0.589559  -0.018512
    12  C   -0.544332  -0.016033
    13  C   -0.514531  -0.018803
    14  C   -0.533320  -0.021973
    15  C    0.187010   0.014560
    16  C    0.102873   0.016688
    17  C   -0.105041   0.014505
    18  C    0.297935   0.016527
    19  C   -0.424862   0.000718
    20  C   -0.278374  -0.000127
    21  C   -0.194805   0.000594
    22  C    0.271842   0.000223
    23  O   -0.328751   0.000017
    24  O   -0.422896   0.000150
    25  C    0.319425   0.016213
    26  C   -0.102460   0.019457
    27  C   -0.075029   0.017099
    28  C    0.283146   0.017662
    29  C   -0.402497   0.000595
    30  C   -0.151363   0.000520
    31  C   -0.404755   0.000771
    32  C    0.229841   0.014993
    33  C   -0.049441   0.023412
    34  C   -0.119046   0.023615
    35  C    0.317775   0.017698
    36  C   -0.418344   0.000087
    37  C   -0.124178   0.000271
    38  C   -0.423878   0.000830
    39  C    0.198669   0.016911
    40  C    0.000234   0.017578
    41  C    0.043882   0.022232
    42  C    0.304928   0.014854
    43  C   -0.430881   0.000725
    44  C   -0.435223  -0.000700
    45  C   -0.090661   0.000833
    46  C    0.248683   0.000149
    47  O   -0.294725   0.000010
    48  O   -0.497195  -0.000003
    49  N   -0.138853   0.052711
    50  N   -0.041398   0.050279
    51  N   -0.023246   0.059851
    52  N    0.043489   0.058314
    53  Fe  -0.179825   4.346657
    54  H    0.160943   0.000137
    55  H    0.148665   0.000223
    56  H    0.160558   0.000168
    57  H    0.190124   0.000951
    58  H    0.212097  -0.000094
    59  H    0.141450   0.000650
    60  H    0.148703   0.000016
    61  H    0.112775   0.000576
    62  H    0.154310  -0.000984
    63  H    0.146247   0.003427
    64  H    0.296826  -0.001045
    65  H    0.284485  -0.001879
    66  H    0.224585   0.005011
    67  H    0.147168   0.000256
    68  H    0.141233  -0.000055
    69  H    0.146325   0.000162
    70  H    0.140853   0.000306
    71  H    0.148110   0.000061
    72  H    0.162586   0.000555
    73  H    0.159647   0.000455
    74  H    0.121657   0.000281
    75  H    0.133713   0.000339
    76  H    0.151966  -0.000012
    77  H    0.144918   0.000017
    78  H    0.155279   0.000743
    79  H    0.153063   0.000639
    80  H    0.140753  -0.000037
    81  H    0.124929   0.000500
    82  H    0.117192   0.000016
    83  H    0.133178   0.000034
    84  H    0.134402   0.000075
    85  H    0.139063  -0.000039
    86  H    0.159117   0.000514
    87  H    0.157577   0.001137
    88  H    0.151375   0.000186
    89  H    0.134306   0.000675
    90  H    0.116103  -0.000027
    91  H    0.140731   0.000256
    92  H    0.134366  -0.000032
    93  H    0.139593   0.000061
    94  H    0.160648   0.000473
    95  H    0.165079   0.000768
    96  H    0.146484   0.000059
    97  H    0.139804   0.000366
    98  H    0.141648   0.000032
    99  H    0.162330  -0.000028
   100  H    0.393539  -0.000001
   101  H    0.383375   0.000028
   102  H    0.288936   0.001098
   103  H    0.152097   0.000456
 Sum of Mulliken charges =   1.00000   5.00000

 Dipole moment (field-independent basis, Debye):
    X=              7.5300    Y=             -1.4281    Z=              8.8934  Tot=             11.7402
 Quadrupole moment (field-independent basis, Debye-Ang):
   XX=           -273.6343   YY=           -283.0203   ZZ=           -284.5153
   XY=             -0.6819   XZ=            -14.9180   YZ=            -21.7618

 Normal termination of Gaussian 16 at Sat Oct  1 13:41:48 2022.
