 Gaussian 16, Revision A.03,
 Gaussian 16:  AM64L-G16RevA.03 25-Dec-2016

 ----------------------------------------------------------------------
 # PBE1PBE/def2TZVP empiricaldispersion=GD3BJ scf=maxcycle=999 geom=che
 ck pop=nbo guess=read
 ----------------------------------------------------------------------

 ----------
 1a6g_III_H
 ----------
 Structure from the checkpoint file:  "1a6g_III_H.chk"
 Charge =  1 Multiplicity = 6

                         Standard orientation:
 ---------------------------------------------------------------------
 Center     Atomic      Atomic             Coordinates (Angstroms)
 Number     Number       Type             X           Y           Z
 ---------------------------------------------------------------------
      1          6           0       -1.668641   -0.145279    5.292812
      2          6           0       -1.254598   -0.464156    3.872057
      3          7           0       -0.483759   -1.549544    3.561379
      4          6           0       -1.440696    0.196128    2.683998
      5          6           0       -0.249098   -1.484741    2.210824
      6          7           0       -0.821448   -0.449671    1.667667
      7         26           0       -0.723984    0.098720   -0.317666
      8          6           0        2.602199   -0.452503   -0.308600
      9          6           0       -1.288254   -3.183982   -1.130162
     10          6           0       -4.050075    0.662815   -0.381545
     11          6           0       -0.167747    3.346614    0.413137
     12          7           0        0.427754   -1.492778   -0.681890
     13          6           0        1.785478   -1.552720   -0.571465
     14          6           0        2.242471   -2.903006   -0.832461
     15          6           0        1.127798   -3.637650   -1.110093
     16          6           0        0.058414   -2.804100   -0.985911
     17          6           0        1.080326   -5.157057   -1.413901
     18          6           0        3.674702   -3.431078   -0.700846
     19          6           0        3.855934   -4.280191    0.587903
     20          6           0        3.536533   -3.512247    1.829572
     21          8           0        2.595994   -3.898986    2.569866
     22          8           0        4.222159   -2.484528    2.078858
     23          7           0       -2.378579   -0.999116   -0.668528
     24          6           0       -2.422961   -2.382987   -1.014722
     25          6           0       -3.770152   -2.797530   -1.176984
     26          6           0       -4.526313   -1.733658   -0.967353
     27          6           0       -3.654506   -0.603317   -0.652072
     28          6           0       -4.190256   -4.236376   -1.483579
     29          6           0       -6.026696   -1.610473   -1.111223
     30          6           0       -6.680165   -2.342620   -2.045838
     31          7           0       -1.853023    1.642466    0.001596
     32          6           0       -3.276022    1.798386   -0.142558
     33          6           0       -3.726764    3.140054   -0.038615
     34          6           0       -2.619367    3.899004    0.177573
     35          6           0       -1.459521    3.003438    0.203034
     36          6           0       -5.187114    3.592041   -0.158132
     37          6           0       -2.475848    5.397954    0.243669
     38          6           0       -3.575721    6.187318    0.182421
     39          7           0        0.872470    1.209764    0.064770
     40          6           0        0.940568    2.555549    0.357252
     41          6           0        2.315034    3.001552    0.463842
     42          6           0        3.072133    1.942310    0.204909
     43          6           0        2.195439    0.846664   -0.012707
     44          6           0        2.718319    4.445503    0.748162
     45          6           0        4.595561    1.896357    0.035348
     46          6           0        5.017935    2.207241   -1.431061
     47          6           0        6.472441    2.383974   -1.657329
     48          8           0        6.986048    3.473400   -1.294814
     49          8           0        7.048103    1.379372   -2.235236
     50          6           0       -0.707283    0.741667   -2.022664
     51          8           0       -0.696536    1.279695   -2.973117
     52          1           0       -1.836314    0.907229    5.387752
     53          1           0       -2.569273   -0.672632    5.528737
     54          1           0       -0.892990   -0.445045    5.966167
     55          1           0       -0.155767   -2.251803    4.193244
     56          1           0        0.334506   -2.199547    1.669198
     57          1           0       -2.000820    1.101266    2.574979
     58          1           0        5.041394    2.617982    0.687567
     59          1           0        4.947155    0.921234    0.300706
     60          1           0        4.678611    1.405425   -2.053034
     61          1           0        4.521209    3.103767   -1.738317
     62          1           0        7.554201    1.513922   -3.039823
     63          1           0        2.724768    5.000719   -0.166493
     64          1           0        2.017339    4.884539    1.426967
     65          1           0        3.695637    4.463766    1.183381
     66          1           0        0.006582    4.374245    0.654974
     67          1           0       -1.505558    5.838816    0.338950
     68          1           0       -3.864893    6.630747   -0.747445
     69          1           0       -4.154954    6.367134    1.063928
     70          1           0       -5.452571    3.671056   -1.191665
     71          1           0       -5.822415    2.875707    0.319527
     72          1           0       -5.305408    4.544762    0.314339
     73          1           0       -5.108706    0.814244   -0.345925
     74          1           0       -6.572323   -0.945247   -0.475090
     75          1           0       -7.646290   -2.747955   -1.828566
     76          1           0       -6.229988   -2.515355   -3.001036
     77          1           0       -3.495847   -4.671813   -2.171395
     78          1           0       -4.199738   -4.805871   -0.577772
     79          1           0       -5.168989   -4.237723   -1.915991
     80          1           0       -1.463053   -4.215074   -1.356426
     81          1           0        3.657692   -0.625715   -0.337457
     82          1           0        1.925238   -5.427758   -2.012018
     83          1           0        1.103234   -5.705339   -0.495335
     84          1           0        0.179738   -5.386813   -1.944046
     85          1           0        4.350770   -2.602274   -0.670571
     86          1           0        3.902894   -4.036883   -1.552802
     87          1           0        4.870503   -4.616001    0.640649
     88          1           0        3.211609   -5.132707    0.533493
     89          1           0        4.715457   -2.054597    1.376422
 ---------------------------------------------------------------------

 SCF Done:  E(UPBE1PBE) =  -3475.23905961     A.U. after    1 cycles

 Alpha virt. eigenvalues --    0.66885   0.67014   0.67397   0.67623   0.68096
 Alpha virt. eigenvalues --    0.68530   0.68666   0.68813   0.69187   0.69594
 Alpha virt. eigenvalues --    0.70088   0.70184   0.70702   0.70822   0.71107

  Beta  occ. eigenvalues -- -256.53497 -30.28409 -26.12686 -26.11052 -26.10276
  Beta  occ. eigenvalues --  -19.42766 -19.35598 -19.33497 -19.26368 -19.26253
  Beta  occ. eigenvalues --  -14.54587 -14.51422 -14.49969 -14.48705 -14.48660
  Beta  occ. eigenvalues --  -14.48467 -10.47243 -10.43954 -10.43343 -10.38575
  Beta  occ. eigenvalues --  -10.36882 -10.36767 -10.36326 -10.36035 -10.36013
  Beta  occ. eigenvalues --  -10.35974 -10.35710 -10.35547 -10.35279 -10.34493
  Beta  occ. eigenvalues --  -10.33878 -10.33620 -10.33502 -10.33441 -10.33431
  Beta  occ. eigenvalues --  -10.33083 -10.32920 -10.32724 -10.32633 -10.32585
  Beta  occ. eigenvalues --  -10.32549 -10.32527 -10.32424 -10.32210 -10.32080
  Beta  occ. eigenvalues --  -10.31916 -10.31826 -10.31552 -10.31138 -10.31001
  Beta  occ. eigenvalues --  -10.30698 -10.30390 -10.30252 -10.29906 -10.29807
  Beta  occ. eigenvalues --   -3.59034  -2.37257  -2.32308  -2.31780  -1.33499
  Beta  occ. eigenvalues --   -1.25410  -1.22409  -1.16498  -1.10996  -1.10402
  Beta  occ. eigenvalues --   -1.09660  -1.08689  -1.08343  -1.06648  -1.02793
  Beta  occ. eigenvalues --   -0.94827  -0.94042  -0.93717  -0.93119  -0.92542
  Beta  occ. eigenvalues --   -0.91963  -0.91627  -0.89952  -0.89251  -0.88607
  Beta  occ. eigenvalues --   -0.86923  -0.86375  -0.85855  -0.84020  -0.82553
  Beta  occ. eigenvalues --   -0.82173  -0.82077  -0.81340  -0.80075  -0.79232
  Beta  occ. eigenvalues --   -0.78843  -0.77183  -0.76430  -0.75822  -0.75411
  Beta  occ. eigenvalues --   -0.73408  -0.72271  -0.71543  -0.70750  -0.70572
  Beta  occ. eigenvalues --   -0.69760  -0.68451  -0.66909  -0.66664  -0.65787
  Beta  occ. eigenvalues --   -0.65150  -0.64633  -0.63652  -0.63182  -0.63014
  Beta  occ. eigenvalues --   -0.62775  -0.62551  -0.61645  -0.61561  -0.60633
  Beta  occ. eigenvalues --   -0.60193  -0.59562  -0.59200  -0.58782  -0.58321
  Beta  occ. eigenvalues --   -0.57720  -0.57557  -0.56979  -0.56572  -0.56000
  Beta  occ. eigenvalues --   -0.55496  -0.55214  -0.54905  -0.54478  -0.54287
  Beta  occ. eigenvalues --   -0.53897  -0.53872  -0.53713  -0.53511  -0.53321
  Beta  occ. eigenvalues --   -0.53038  -0.52780  -0.52621  -0.52414  -0.52220
  Beta  occ. eigenvalues --   -0.52126  -0.52010  -0.51687  -0.51328  -0.50919
  Beta  occ. eigenvalues --   -0.50830  -0.50642  -0.50527  -0.50324  -0.49911
  Beta  occ. eigenvalues --   -0.49525  -0.49335  -0.49292  -0.49047  -0.48700
  Beta  occ. eigenvalues --   -0.48285  -0.48009  -0.47828  -0.47392  -0.46975
  Beta  occ. eigenvalues --   -0.46814  -0.46758  -0.46539  -0.46080  -0.46016
  Beta  occ. eigenvalues --   -0.45625  -0.44728  -0.44123  -0.43919  -0.43763
  Beta  occ. eigenvalues --   -0.43587  -0.42477  -0.41080  -0.40594  -0.40513
  Beta  occ. eigenvalues --   -0.39352  -0.39230  -0.37680  -0.36414  -0.36306
  Beta  occ. eigenvalues --   -0.35712  -0.35460  -0.34071  -0.33824  -0.32197
  Beta  occ. eigenvalues --   -0.30218  -0.29813
  Beta virt. eigenvalues --   -0.23503  -0.19446  -0.18430  -0.17345  -0.15494
  Beta virt. eigenvalues --   -0.13747  -0.13561  -0.11910  -0.11116  -0.10335
  Beta virt. eigenvalues --   -0.09722  -0.09516  -0.09029  -0.08548  -0.08127

 Mulliken charges and spin densities:
               1          2
     1  C   -0.371334  -0.000461
     2  C    0.142400  -0.000193
     3  N   -0.203561  -0.001116
     4  C   -0.195883   0.000286
     5  C    0.002694   0.005483
     6  N    0.089224  -0.057568
     7  Fe  -0.196478   2.830570
     8  C   -0.470508  -0.071584
     9  C   -0.458135   0.018234
    10  C   -0.425654   0.095876
    11  C   -0.398701  -0.021704
    12  N   -0.058718   0.015787
    13  C    0.271788   0.044851
    14  C    0.027308   0.032900
    15  C   -0.081710   0.018485
    16  C    0.277998   0.020026
    17  C   -0.393334  -0.000327
    18  C   -0.413009  -0.001545
    19  C   -0.190394   0.001123
    20  C    0.297721   0.000676
    21  O   -0.392937   0.000044
    22  O   -0.269763  -0.000017
    23  N    0.007615   0.107009
    24  C    0.262592   0.009712
    25  C   -0.180002  -0.017993
    26  C    0.089757   0.035467
    27  C    0.198110  -0.044864
    28  C   -0.354375   0.002433
    29  C   -0.215690  -0.018247
    30  C   -0.303649   0.026770
    31  N   -0.084894   0.112296
    32  C    0.269218  -0.086255
    33  C   -0.084565   0.278985
    34  C   -0.059642  -0.137818
    35  C    0.238058   0.065567
    36  C   -0.352350  -0.012767
    37  C   -0.088692   0.697075
    38  C   -0.340515   0.995499
    39  N   -0.026752   0.009821
    40  C    0.259956   0.037068
    41  C   -0.086358   0.011541
    42  C   -0.027741   0.023299
    43  C    0.290365   0.047332
    44  C   -0.382931  -0.000417
    45  C   -0.321611  -0.001106
    46  C   -0.157283   0.001493
    47  C    0.304777   0.000158
    48  O   -0.339923   0.000172
    49  O   -0.374095   0.000107
    50  C    0.160033  -0.114985
    51  O    0.069076  -0.011940
    52  H    0.152553  -0.000012
    53  H    0.159113   0.000065
    54  H    0.145627  -0.000037
    55  H    0.263052  -0.000125
    56  H    0.211841  -0.000622
    57  H    0.153666  -0.000474
    58  H    0.150260   0.000488
    59  H    0.106095   0.000199
    60  H    0.112541  -0.000061
    61  H    0.141405  -0.000091
    62  H    0.359422   0.000002
    63  H    0.158653   0.000657
    64  H    0.142686   0.000172
    65  H    0.153684   0.000292
    66  H    0.106535   0.003205
    67  H    0.146214   0.018002
    68  H    0.165647   0.004245
    69  H    0.165476   0.009357
    70  H    0.162053   0.013161
    71  H    0.141681   0.008731
    72  H    0.147654  -0.001316
    73  H    0.109440  -0.003943
    74  H    0.136113   0.002182
    75  H    0.155271  -0.001412
    76  H    0.161444  -0.001371
    77  H    0.134331  -0.000476
    78  H    0.153523  -0.000844
    79  H    0.155977   0.000066
    80  H    0.128074  -0.001026
    81  H    0.081118   0.003062
    82  H    0.148262   0.000394
    83  H    0.166731   0.000827
    84  H    0.141002   0.000106
    85  H    0.152020   0.000030
    86  H    0.152969   0.001158
    87  H    0.154673   0.000261
    88  H    0.131129  -0.000047
    89  H    0.334563  -0.000047
 Sum of Mulliken charges =   1.00000   5.00000

 Dipole moment (field-independent basis, Debye):
    X=             -2.6252    Y=             -1.2721    Z=             -0.7950  Tot=              3.0235
 Quadrupole moment (field-independent basis, Debye-Ang):
   XX=           -222.4073   YY=           -239.3957   ZZ=           -262.1388
   XY=            -27.4169   XZ=            -20.7804   YZ=             12.0074

 Summary of Natural Population Analysis:

                                       Natural Population
                Natural  -----------------------------------------------
    Atom  No    Charge         Core      Valence    Rydberg      Total
 -----------------------------------------------------------------------
      C    1   -0.32109      0.99969     2.31822    0.00318     3.32109
      C    2    0.06846      0.99959     1.92448    0.00747     2.93154
      N    3   -0.23717      0.99970     2.72798    0.00948     3.73717
      C    4   -0.04222      0.99948     2.03330    0.00945     3.04222
      C    5    0.10905      0.99966     1.88073    0.01056     2.89095
      N    6   -0.19195      0.99967     2.66750    0.02478     3.69195
     Fe    7    1.39265      8.99229     2.58506    0.03000    11.60735
      C    8   -0.12570      0.99951     2.11789    0.00831     3.12570
      C    9   -0.08791      0.99952     2.08111    0.00727     3.08791
      C   10   -0.07287      0.99948     2.06569    0.00770     3.07287
      C   11   -0.13215      0.99944     2.12441    0.00830     3.13215
      N   12   -0.18583      0.99969     2.66587    0.02027     3.68583
      C   13    0.07983      0.99952     1.91045    0.01020     2.92017
      C   14    0.01356      0.99943     1.97752    0.00949     2.98644
      C   15   -0.00439      0.99930     1.99622    0.00888     3.00439
      C   16    0.07896      0.99941     1.91142    0.01021     2.92104
      C   17   -0.31596      0.99970     2.31263    0.00363     3.31596
      C   18   -0.20885      0.99967     2.20215    0.00704     3.20885
      C   19   -0.25549      0.99962     2.24806    0.00781     3.25549
      C   20    0.38424      0.99971     1.59898    0.01707     2.61576
      O   21   -0.29909      0.99989     3.28753    0.01167     4.29909
      O   22   -0.31433      0.99981     3.29912    0.01540     4.31433
      N   23   -0.12594      0.99967     2.60635    0.01992     3.62594
      C   24    0.07946      0.99949     1.91132    0.00973     2.92054
      C   25   -0.00928      0.99932     2.00095    0.00901     3.00928
      C   26   -0.01383      0.99935     2.00402    0.01046     3.01383
      C   27    0.06491      0.99951     1.92574    0.00985     2.93509
      C   28   -0.31685      0.99969     2.31352    0.00364     3.31685
      C   29   -0.11542      0.99961     2.10647    0.00933     3.11542
      C   30   -0.16855      0.99965     2.16057    0.00834     3.16855
      N   31   -0.14089      0.99970     2.62216    0.01904     3.64089
      C   32    0.04489      0.99949     1.94645    0.00916     2.95511
      C   33    0.11745      0.99937     1.87493    0.00825     2.88255
      C   34   -0.08581      0.99939     2.07651    0.00991     3.08581
      C   35    0.12456      0.99948     1.86626    0.00970     2.87544
      C   36   -0.31530      0.99969     2.31224    0.00338     3.31530
      C   37    0.25809      0.99960     1.73473    0.00758     2.74191
      C   38    0.30202      0.99964     1.69082    0.00752     2.69798
      N   39   -0.18532      0.99968     2.66423    0.02141     3.68532
      C   40    0.10950      0.99950     1.88091    0.01009     2.89050
      C   41    0.00305      0.99937     1.98911    0.00847     2.99695
      C   42    0.00486      0.99933     1.98633    0.00948     2.99514
      C   43    0.08858      0.99950     1.90218    0.00974     2.91142
      C   44   -0.31973      0.99970     2.31647    0.00356     3.31973
      C   45   -0.20191      0.99966     2.19601    0.00624     3.20191
      C   46   -0.25027      0.99960     2.24203    0.00863     3.25027
      C   47    0.37990      0.99969     1.60347    0.01694     2.62010
      O   48   -0.27903      0.99989     3.26754    0.01160     4.27903
      O   49   -0.34178      0.99983     3.32922    0.01272     4.34178
      C   50    0.42471      0.99937     1.54778    0.02814     2.57529
      O   51   -0.18035      0.99986     3.16264    0.01786     4.18035
      H   52    0.11980      0.00000     0.37972    0.00049     0.38020
      H   53    0.11715      0.00000     0.38221    0.00064     0.38285
      H   54    0.11449      0.00000     0.38488    0.00063     0.38551
      H   55    0.21936      0.00000     0.27982    0.00083     0.28064
      H   56    0.11756      0.00000     0.38152    0.00091     0.38244
      H   57    0.11458      0.00000     0.38471    0.00071     0.38542
      H   58    0.11964      0.00000     0.37951    0.00085     0.38036
      H   59    0.10353      0.00000     0.39567    0.00080     0.39647
      H   60    0.10747      0.00000     0.39184    0.00069     0.39253
      H   61    0.12138      0.00000     0.37803    0.00059     0.37862
      H   62    0.26008      0.00000     0.23874    0.00117     0.23992
      H   63    0.11658      0.00000     0.38272    0.00070     0.38342
      H   64    0.11247      0.00000     0.38691    0.00062     0.38753
      H   65    0.11751      0.00000     0.38179    0.00070     0.38249
      H   66    0.11365      0.00000     0.38506    0.00129     0.38635
      H   67    0.12272      0.00000     0.37672    0.00056     0.37728
      H   68    0.11107      0.00000     0.38841    0.00051     0.38893
      H   69    0.10988      0.00000     0.38959    0.00053     0.39012
      H   70    0.12326      0.00000     0.37613    0.00061     0.37674
      H   71    0.11656      0.00000     0.38286    0.00058     0.38344
      H   72    0.11778      0.00000     0.38162    0.00060     0.38222
      H   73    0.11134      0.00000     0.38745    0.00121     0.38866
      H   74    0.10870      0.00000     0.39045    0.00086     0.39130
      H   75    0.10491      0.00000     0.39438    0.00071     0.39509
      H   76    0.10133      0.00000     0.39779    0.00088     0.39867
      H   77    0.11082      0.00000     0.38854    0.00064     0.38918
      H   78    0.11537      0.00000     0.38389    0.00074     0.38463
      H   79    0.12047      0.00000     0.37883    0.00070     0.37953
      H   80    0.11272      0.00000     0.38596    0.00131     0.38728
      H   81    0.10334      0.00000     0.39478    0.00188     0.39666
      H   82    0.11347      0.00000     0.38580    0.00073     0.38653
      H   83    0.11678      0.00000     0.38247    0.00075     0.38322
      H   84    0.11212      0.00000     0.38729    0.00059     0.38788
      H   85    0.09933      0.00000     0.39987    0.00080     0.40067
      H   86    0.12110      0.00000     0.37807    0.00083     0.37890
      H   87    0.11784      0.00000     0.38154    0.00062     0.38216
      H   88    0.12076      0.00000     0.37853    0.00071     0.37924
      H   89    0.24964      0.00000     0.24928    0.00108     0.25036
 =======================================================================
   * Total *    3.00000     58.97142   127.43069    0.59789   187.00000

 Normal termination of Gaussian 16 at Mon Nov  7 12:10:38 2022.
