 Gaussian 16, Revision A.03,
 Gaussian 16:  AM64L-G16RevA.03 25-Dec-2016

 ----------------------------------------------------------------------
 # PBE1PBE/def2TZVP empiricaldispersion=GD3BJ scf=maxcycle=999 geom=che
 ck pop=nbo
 ----------------------------------------------------------------------

 ----------
 1jdl_III_D
 ----------
 Structure from the checkpoint file:  "1jdl_III_D.chk"
 Charge =  1 Multiplicity = 2

                         Standard orientation:
 ---------------------------------------------------------------------
 Center     Atomic      Atomic             Coordinates (Angstroms)
 Number     Number       Type             X           Y           Z
 ---------------------------------------------------------------------
      1          6           0        2.628197   -1.653437    4.968101
      2          6           0        1.748235   -1.176809    3.861118
      3          7           0        0.372586   -1.186335    3.945932
      4          6           0        2.046149   -0.743884    2.614204
      5          6           0       -0.138560   -0.788081    2.796042
      6          7           0        0.855806   -0.515189    1.969990
      7          6           0       -0.739312    3.003911   -2.731769
      8          6           0        0.569495    2.199125   -2.627158
      9         16           0        0.513857    0.426977   -2.321855
     10          6           0        1.846977   -0.128049   -3.358084
     11          6           0       -2.575871   -0.206679   -0.122090
     12          6           0        0.982946   -3.406362   -0.720520
     13          6           0        4.226628    0.134754   -0.180032
     14          6           0        0.698568    3.174317    0.948896
     15          6           0       -1.883354   -1.388270   -0.393026
     16          6           0       -2.510979   -2.634633   -0.763470
     17          6           0       -1.496928   -3.524758   -0.934836
     18          6           0       -0.265109   -2.825284   -0.657178
     19          6           0       -1.611219   -4.971493   -1.390583
     20          6           0       -4.022390   -2.900731   -0.779420
     21          6           0       -4.413907   -3.359814    0.624465
     22          6           0       -5.920021   -3.549819    0.827078
     23          8           0       -6.694327   -3.439326   -0.144123
     24          8           0       -6.328114   -3.822468    1.974742
     25          6           0        2.177199   -2.711111   -0.594377
     26          6           0        3.486565   -3.299901   -0.725974
     27          6           0        4.357073   -2.248457   -0.799642
     28          6           0        3.630986   -1.086835   -0.453372
     29          6           0        3.777097   -4.794450   -0.744555
     30          6           0        5.635529   -2.155796   -1.388016
     31          6           0        6.403027   -3.220598   -2.152412
     32          6           0        3.549816    1.279575    0.125707
     33          6           0        4.168260    2.558566    0.405614
     34          6           0        3.155792    3.428939    0.552724
     35          6           0        1.936804    2.647933    0.617000
     36          6           0        5.667786    2.836749    0.528651
     37          6           0        3.160709    4.839283    0.470760
     38          6           0        4.329621    5.815657    0.394968
     39          6           0       -0.499300    2.505772    0.834699
     40          6           0       -1.788819    3.127881    1.022625
     41          6           0       -2.726000    2.206661    0.646958
     42          6           0       -1.979690    1.007552    0.251152
     43          6           0       -2.062936    4.563454    1.479455
     44          6           0       -4.237221    2.435493    0.549054
     45          6           0       -4.522676    2.884367   -0.888457
     46          6           0       -5.962039    3.292759   -1.128965
     47          8           0       -6.264316    3.711526   -2.267450
     48          8           0       -6.793143    3.198227   -0.199038
     49          7           0       -0.504776   -1.504065   -0.347971
     50          7           0        2.263013   -1.346479   -0.413305
     51          7           0        2.172036    1.345818    0.236454
     52          7           0       -0.609798    1.205371    0.371142
     53         26           0        0.839391   -0.064255   -0.077962
     54          1           0       -5.804586   -3.577348    2.741184
     55          1           0       -3.924645   -4.289841    0.825894
     56          1           0       -4.066100   -2.632811    1.328309
     57          1           0       -4.548121   -2.002941   -1.029380
     58          1           0       -4.250264   -3.667102   -1.490509
     59          1           0       -4.537458    3.197891    1.237173
     60          1           0       -4.759700    1.525670    0.759141
     61          1           0       -3.889817    3.716179   -1.117540
     62          1           0       -4.281859    2.079274   -1.550826
     63          1           0       -6.622239    3.626692    0.642870
     64          1           0       -3.642398   -0.228639   -0.205385
     65          1           0        0.671568    4.176671    1.322336
     66          1           0        5.295065    0.183535   -0.211053
     67          1           0        1.034461   -4.463553   -0.877342
     68          1           0       -1.376548    5.228193    0.997902
     69          1           0       -3.064634    4.835344    1.219496
     70          1           0       -1.939175    4.629973    2.540190
     71          1           0       -0.680933   -5.472827   -1.222858
     72          1           0       -2.384793   -5.460133   -0.835862
     73          1           0       -1.848328   -4.999194   -2.433613
     74          1           0        4.725511   -4.979168   -0.284893
     75          1           0        3.012285   -5.313201   -0.205241
     76          1           0        3.797660   -5.141240   -1.756590
     77          1           0        5.822972    3.878461    0.717473
     78          1           0        6.071701    2.263709    1.336968
     79          1           0        6.157329    2.562616   -0.382447
     80          1           0        5.334741    5.448999    0.409008
     81          1           0        4.144695    6.867410    0.327746
     82          1           0        2.192087    5.293772    0.460203
     83          1           0        7.433211   -3.065857   -2.396700
     84          1           0        5.913501   -4.125429   -2.446597
     85          1           0        6.129144   -1.212384   -1.282102
     86          1           0        2.781570    0.135138   -2.908453
     87          1           0        1.792246   -1.190655   -3.471106
     88          1           0        1.769671    0.337235   -4.318519
     89          1           0        1.104795    2.345717   -3.541961
     90          1           0       -0.575583    3.874710   -3.331603
     91          1           0       -1.496102    2.396978   -3.183213
     92          1           0       -1.055617    3.299214   -1.753174
     93          1           0        1.148191    2.637383   -1.841066
     94          1           0        3.288583   -0.865035    5.263418
     95          1           0        2.025308   -1.945079    5.802589
     96          1           0        3.201652   -2.491951    4.632027
     97          1           0        3.025852   -0.605726    2.206780
     98          1           0       -1.181018   -0.701033    2.571091
     99          1           0       -0.155405   -1.453126    4.752188
 ---------------------------------------------------------------------

 SCF Done:  E(UPBE1PBE) =  -3879.21490364     A.U. after   83 cycles

 Alpha virt. eigenvalues --    0.91017   0.91577   0.91637   0.92072   0.92507
 Alpha virt. eigenvalues --    0.92643   0.92945   0.93086   0.93414   0.93455
 Alpha virt. eigenvalues --    0.94021   0.94208   0.94515   0.94603   0.94707

  Beta  occ. eigenvalues -- -256.51116 -89.15518 -30.27656 -26.10647 -26.10507
  Beta  occ. eigenvalues --  -26.09803 -19.34369 -19.33148 -19.24871 -19.24540
  Beta  occ. eigenvalues --  -14.55677 -14.51184 -14.49772 -14.49728 -14.49673
  Beta  occ. eigenvalues --  -14.49237 -10.42649 -10.42163 -10.39426 -10.36685
  Beta  occ. eigenvalues --  -10.36627 -10.36302 -10.36073 -10.35967 -10.35955
  Beta  occ. eigenvalues --  -10.35922 -10.35833 -10.35684 -10.34573 -10.34372
  Beta  occ. eigenvalues --  -10.34288 -10.33823 -10.33792 -10.33556 -10.33270
  Beta  occ. eigenvalues --  -10.33246 -10.33204 -10.33041 -10.32806 -10.32779
  Beta  occ. eigenvalues --  -10.32724 -10.32659 -10.32635 -10.32512 -10.32508
  Beta  occ. eigenvalues --  -10.32476 -10.32414 -10.32324 -10.32090 -10.32073
  Beta  occ. eigenvalues --  -10.31475 -10.31241 -10.31218 -10.30706 -10.30563
  Beta  occ. eigenvalues --  -10.30425 -10.30162  -8.13325  -6.06921  -6.06679
  Beta  occ. eigenvalues --   -6.06250  -3.60017  -2.35415  -2.35194  -2.34761
  Beta  occ. eigenvalues --   -1.24748  -1.23841  -1.17847  -1.10025  -1.09700
  Beta  occ. eigenvalues --   -1.09343  -1.08599  -1.08371  -1.07361  -1.02335
  Beta  occ. eigenvalues --   -0.95771  -0.94929  -0.93878  -0.93510  -0.93203
  Beta  occ. eigenvalues --   -0.92918  -0.92015  -0.91887  -0.91718  -0.88946
  Beta  occ. eigenvalues --   -0.88253  -0.87537  -0.86524  -0.86387  -0.84861
  Beta  occ. eigenvalues --   -0.82980  -0.82943  -0.82158  -0.81638  -0.81258
  Beta  occ. eigenvalues --   -0.79833  -0.78602  -0.78124  -0.77842  -0.76460
  Beta  occ. eigenvalues --   -0.76384  -0.75955  -0.74855  -0.74730  -0.73295
  Beta  occ. eigenvalues --   -0.72868  -0.72229  -0.71442  -0.70159  -0.68941
  Beta  occ. eigenvalues --   -0.67571  -0.66412  -0.65543  -0.65012  -0.64496
  Beta  occ. eigenvalues --   -0.63124  -0.62978  -0.62546  -0.62025  -0.61608
  Beta  occ. eigenvalues --   -0.60033  -0.59658  -0.59465  -0.59290  -0.59185
  Beta  occ. eigenvalues --   -0.58778  -0.58720  -0.58196  -0.57166  -0.56943
  Beta  occ. eigenvalues --   -0.56304  -0.55778  -0.55498  -0.55276  -0.55114
  Beta  occ. eigenvalues --   -0.54933  -0.54802  -0.54397  -0.54331  -0.54213
  Beta  occ. eigenvalues --   -0.54158  -0.53966  -0.53702  -0.53541  -0.53437
  Beta  occ. eigenvalues --   -0.53265  -0.52967  -0.52549  -0.52473  -0.52108
  Beta  occ. eigenvalues --   -0.51975  -0.51558  -0.51283  -0.51153  -0.50995
  Beta  occ. eigenvalues --   -0.50898  -0.50413  -0.50396  -0.49943  -0.49642
  Beta  occ. eigenvalues --   -0.49606  -0.49117  -0.48799  -0.48524  -0.48415
  Beta  occ. eigenvalues --   -0.48366  -0.48062  -0.47938  -0.47848  -0.47708
  Beta  occ. eigenvalues --   -0.47185  -0.46754  -0.46722  -0.46267  -0.46064
  Beta  occ. eigenvalues --   -0.45830  -0.45721  -0.44528  -0.44153  -0.43935
  Beta  occ. eigenvalues --   -0.43862  -0.43494  -0.42935  -0.42792  -0.42448
  Beta  occ. eigenvalues --   -0.41180  -0.40523  -0.39903  -0.39556  -0.39492
  Beta  occ. eigenvalues --   -0.38803  -0.38028  -0.37218  -0.36501  -0.35683
  Beta  occ. eigenvalues --   -0.35088  -0.35029  -0.34032  -0.33420  -0.32108
  Beta  occ. eigenvalues --   -0.30828  -0.30303  -0.29180
  Beta virt. eigenvalues --   -0.20398  -0.18494  -0.16676  -0.14785  -0.14013
  Beta virt. eigenvalues --   -0.11899  -0.10659  -0.08988  -0.08635  -0.07865
  Beta virt. eigenvalues --   -0.07608  -0.07038  -0.06686  -0.06184  -0.06003

 Mulliken charges and spin densities:
               1          2
     1  C   -0.343974  -0.000209
     2  C    0.115524  -0.000262
     3  N   -0.203482  -0.000902
     4  C   -0.175449   0.002871
     5  C    0.025764   0.001122
     6  N   -0.006026  -0.033659
     7  C   -0.365873  -0.000238
     8  C   -0.171789   0.002667
     9  S    0.109420  -0.047165
    10  C   -0.383750   0.007191
    11  C   -0.537288  -0.010116
    12  C   -0.477401  -0.011424
    13  C   -0.480563  -0.008309
    14  C   -0.405879  -0.001819
    15  C    0.290467   0.003941
    16  C   -0.002929   0.018261
    17  C   -0.080569  -0.004783
    18  C    0.291301   0.014001
    19  C   -0.381530  -0.000331
    20  C   -0.283919  -0.001484
    21  C   -0.308896   0.000815
    22  C    0.315401   0.000226
    23  O   -0.344874   0.000035
    24  O   -0.279101   0.000079
    25  C    0.210548   0.014972
    26  C   -0.062731  -0.026810
    27  C    0.004993   0.036250
    28  C    0.238467  -0.003454
    29  C   -0.414247   0.001038
    30  C   -0.171330  -0.059469
    31  C   -0.283327   0.089368
    32  C    0.254226   0.000911
    33  C   -0.097172   0.019536
    34  C    0.054072  -0.004245
    35  C    0.147613   0.008766
    36  C   -0.347300  -0.001202
    37  C   -0.176962   0.002511
    38  C   -0.268466  -0.004008
    39  C    0.183995   0.007389
    40  C   -0.094972  -0.003869
    41  C    0.092502   0.014661
    42  C    0.181071   0.003097
    43  C   -0.392326  -0.000464
    44  C   -0.348679  -0.001222
    45  C   -0.243915   0.000792
    46  C    0.304640   0.000148
    47  O   -0.333483   0.000239
    48  O   -0.296884   0.000013
    49  N    0.060644  -0.040365
    50  N    0.067724  -0.038295
    51  N    0.055755  -0.037710
    52  N    0.091201  -0.036393
    53  Fe  -0.519978   1.138264
    54  H    0.339026  -0.000005
    55  H    0.148495  -0.000026
    56  H    0.120351  -0.000035
    57  H    0.140165   0.000200
    58  H    0.151773   0.000149
    59  H    0.137471   0.000120
    60  H    0.136375   0.000185
    61  H    0.144313  -0.000038
    62  H    0.144822  -0.000009
    63  H    0.345684   0.000009
    64  H    0.130389   0.000211
    65  H    0.142717   0.000040
    66  H    0.138380  -0.000001
    67  H    0.120345   0.000432
    68  H    0.144598  -0.000024
    69  H    0.133995  -0.000093
    70  H    0.159415  -0.000040
    71  H    0.131565  -0.000053
    72  H    0.139705  -0.000086
    73  H    0.163123  -0.000142
    74  H    0.172015  -0.000514
    75  H    0.138758  -0.000302
    76  H    0.155924  -0.001081
    77  H    0.119159  -0.000015
    78  H    0.149916   0.000673
    79  H    0.147871   0.000735
    80  H    0.132319   0.000165
    81  H    0.158125   0.000138
    82  H    0.116913  -0.000212
    83  H    0.160712  -0.003982
    84  H    0.151695  -0.003753
    85  H    0.112636   0.002843
    86  H    0.164439  -0.001415
    87  H    0.165887  -0.000189
    88  H    0.181628  -0.001633
    89  H    0.146197  -0.000649
    90  H    0.151626  -0.000126
    91  H    0.137072  -0.000002
    92  H    0.127934  -0.000012
    93  H    0.141694  -0.001523
    94  H    0.159166   0.000001
    95  H    0.127761  -0.000005
    96  H    0.158117   0.000003
    97  H    0.174224  -0.000447
    98  H    0.179756  -0.000236
    99  H    0.245490  -0.000216
 Sum of Mulliken charges =   1.00000   1.00000

 Dipole moment (field-independent basis, Debye):
    X=              9.3317    Y=             -1.3509    Z=              8.7486  Tot=             12.8625
 Quadrupole moment (field-independent basis, Debye-Ang):
   XX=           -311.9650   YY=           -260.8589   ZZ=           -268.4877
   XY=             -5.8987   XZ=            -46.3597   YZ=              1.0117

 Summary of Natural Population Analysis:

                                       Natural Population
                Natural  -----------------------------------------------
    Atom  No    Charge         Core      Valence    Rydberg      Total
 -----------------------------------------------------------------------
      C    1   -0.32110      0.99969     2.31821    0.00319     3.32110
      C    2    0.05992      0.99954     1.93154    0.00899     2.94008
      N    3   -0.23461      0.99968     2.72479    0.01014     3.73461
      C    4   -0.03417      0.99942     2.02594    0.00881     3.03417
      C    5    0.09912      0.99965     1.89032    0.01092     2.90088
      N    6   -0.18560      0.99969     2.65886    0.02705     3.68560
      C    7   -0.30437      0.99972     2.29934    0.00531     3.30437
      C    8   -0.27324      0.99963     2.26412    0.00949     3.27324
      S    9    0.31283      4.99926     2.66818    0.01973     7.68717
      C   10   -0.37340      0.99965     2.36467    0.00908     3.37340
      C   11   -0.12710      0.99950     2.11912    0.00847     3.12710
      C   12   -0.11717      0.99948     2.10951    0.00818     3.11717
      C   13   -0.12642      0.99946     2.11870    0.00826     3.12642
      C   14   -0.12445      0.99947     2.11670    0.00828     3.12445
      C   15    0.07937      0.99951     1.91090    0.01022     2.92063
      C   16    0.00199      0.99941     1.98932    0.00929     2.99801
      C   17   -0.00674      0.99943     1.99923    0.00808     3.00674
      C   18    0.08706      0.99950     1.90258    0.01085     2.91294
      C   19   -0.31796      0.99969     2.31448    0.00379     3.31796
      C   20   -0.20999      0.99967     2.20231    0.00801     3.20999
      C   21   -0.25588      0.99963     2.24788    0.00837     3.25588
      C   22    0.37934      0.99976     1.60373    0.01718     2.62066
      O   23   -0.28491      0.99989     3.27289    0.01213     4.28491
      O   24   -0.31157      0.99981     3.29613    0.01563     4.31157
      C   25    0.08469      0.99951     1.90519    0.01061     2.91531
      C   26    0.00509      0.99946     1.98686    0.00860     2.99491
      C   27   -0.04867      0.99941     2.03894    0.01032     3.04867
      C   28    0.08917      0.99949     1.90105    0.01029     2.91083
      C   29   -0.32145      0.99970     2.31803    0.00372     3.32145
      C   30   -0.12302      0.99963     2.11637    0.00702     3.12302
      C   31   -0.13196      0.99975     2.12712    0.00509     3.13196
      C   32    0.07136      0.99949     1.91903    0.01012     2.92864
      C   33    0.02928      0.99941     1.96278    0.00854     2.97072
      C   34   -0.06495      0.99940     2.05557    0.00998     3.06495
      C   35    0.10570      0.99953     1.88400    0.01077     2.89430
      C   36   -0.31844      0.99969     2.31492    0.00383     3.31844
      C   37   -0.09925      0.99963     2.09274    0.00688     3.09925
      C   38   -0.17165      0.99974     2.16690    0.00501     3.17165
      C   39    0.08627      0.99949     1.90343    0.01081     2.91373
      C   40   -0.01344      0.99942     2.00552    0.00849     3.01344
      C   41    0.00245      0.99943     1.98857    0.00954     2.99755
      C   42    0.07706      0.99952     1.91327    0.01015     2.92294
      C   43   -0.31924      0.99969     2.31583    0.00371     3.31924
      C   44   -0.21985      0.99967     2.21243    0.00775     3.21985
      C   45   -0.25554      0.99963     2.24723    0.00868     3.25554
      C   46    0.37936      0.99974     1.60352    0.01738     2.62064
      O   47   -0.27341      0.99989     3.26170    0.01182     4.27341
      O   48   -0.32723      0.99980     3.31222    0.01522     4.32723
      N   49   -0.20419      0.99967     2.68094    0.02358     3.70419
      N   50   -0.20495      0.99966     2.68106    0.02422     3.70495
      N   51   -0.20086      0.99966     2.67831    0.02288     3.70086
      N   52   -0.20983      0.99967     2.68630    0.02385     3.70983
     Fe   53    0.59391      8.99500     3.38454    0.02655    12.40609
      H   54    0.24898      0.00000     0.24998    0.00104     0.25102
      H   55    0.11480      0.00000     0.38445    0.00074     0.38520
      H   56    0.10483      0.00000     0.39435    0.00082     0.39517
      H   57    0.11592      0.00000     0.38335    0.00073     0.38408
      H   58    0.12183      0.00000     0.37748    0.00068     0.37817
      H   59    0.10457      0.00000     0.39455    0.00087     0.39543
      H   60    0.11344      0.00000     0.38578    0.00079     0.38656
      H   61    0.11904      0.00000     0.38033    0.00063     0.38096
      H   62    0.12243      0.00000     0.37691    0.00066     0.37757
      H   63    0.25387      0.00000     0.24508    0.00106     0.24613
      H   64    0.11283      0.00000     0.38590    0.00127     0.38717
      H   65    0.11532      0.00000     0.38348    0.00120     0.38468
      H   66    0.11515      0.00000     0.38346    0.00139     0.38485
      H   67    0.11353      0.00000     0.38508    0.00139     0.38647
      H   68    0.11386      0.00000     0.38547    0.00068     0.38614
      H   69    0.11098      0.00000     0.38835    0.00067     0.38902
      H   70    0.11630      0.00000     0.38298    0.00072     0.38370
      H   71    0.10919      0.00000     0.39024    0.00057     0.39081
      H   72    0.11289      0.00000     0.38637    0.00074     0.38711
      H   73    0.11852      0.00000     0.38076    0.00072     0.38148
      H   74    0.12048      0.00000     0.37881    0.00071     0.37952
      H   75    0.11153      0.00000     0.38783    0.00064     0.38847
      H   76    0.11390      0.00000     0.38524    0.00087     0.38610
      H   77    0.11331      0.00000     0.38592    0.00078     0.38669
      H   78    0.11725      0.00000     0.38210    0.00065     0.38275
      H   79    0.11517      0.00000     0.38412    0.00071     0.38483
      H   80    0.09026      0.00000     0.40889    0.00084     0.40974
      H   81    0.10521      0.00000     0.39418    0.00061     0.39479
      H   82    0.10240      0.00000     0.39673    0.00087     0.39760
      H   83    0.10346      0.00000     0.39592    0.00062     0.39654
      H   84    0.09580      0.00000     0.40338    0.00082     0.40420
      H   85    0.10218      0.00000     0.39696    0.00086     0.39782
      H   86    0.11602      0.00000     0.38308    0.00089     0.38398
      H   87    0.12538      0.00000     0.37418    0.00044     0.37462
      H   88    0.12010      0.00000     0.37925    0.00065     0.37990
      H   89    0.11643      0.00000     0.38285    0.00072     0.38357
      H   90    0.11522      0.00000     0.38431    0.00047     0.38478
      H   91    0.11082      0.00000     0.38849    0.00069     0.38918
      H   92    0.10737      0.00000     0.39176    0.00086     0.39263
      H   93    0.11612      0.00000     0.38268    0.00120     0.38388
      H   94    0.12000      0.00000     0.37943    0.00057     0.38000
      H   95    0.11137      0.00000     0.38806    0.00056     0.38863
      H   96    0.11964      0.00000     0.37979    0.00057     0.38036
      H   97    0.11907      0.00000     0.38015    0.00078     0.38093
      H   98    0.11355      0.00000     0.38559    0.00086     0.38645
      H   99    0.21227      0.00000     0.28697    0.00076     0.28773
 =======================================================================
   * Total *    1.00000     64.97396   137.40483    0.62121   203.00000

 Normal termination of Gaussian 16 at Mon Nov 14 04:03:06 2022.
