 Gaussian 16, Revision A.03,
 Gaussian 16:  ES64L-G16RevA.03 25-Dec-2016

 ----------------------------------------------------------------------
 # PBE1PBE/def2TZVP empiricaldispersion=GD3BJ scf=maxcycle=999 geom=che
 ck pop=nbo
 ----------------------------------------------------------------------

 ----------
 1jdl_III_H
 ----------
 Structure from the checkpoint file:  "1jdl_III_H.chk"
 Charge =  1 Multiplicity = 6

                         Standard orientation:
 ---------------------------------------------------------------------
 Center     Atomic      Atomic             Coordinates (Angstroms)
 Number     Number       Type             X           Y           Z
 ---------------------------------------------------------------------
      1          6           0        2.628197   -1.653437    4.968101
      2          6           0        1.748235   -1.176809    3.861118
      3          7           0        0.372586   -1.186335    3.945932
      4          6           0        2.046149   -0.743884    2.614204
      5          6           0       -0.138560   -0.788081    2.796042
      6          7           0        0.855806   -0.515189    1.969990
      7          6           0       -0.739312    3.003911   -2.731769
      8          6           0        0.569495    2.199125   -2.627158
      9         16           0        0.513857    0.426977   -2.321855
     10          6           0        1.846977   -0.128049   -3.358084
     11          6           0       -2.575871   -0.206679   -0.122090
     12          6           0        0.982946   -3.406362   -0.720520
     13          6           0        4.226628    0.134754   -0.180032
     14          6           0        0.698568    3.174317    0.948896
     15          6           0       -1.883354   -1.388270   -0.393026
     16          6           0       -2.510979   -2.634633   -0.763470
     17          6           0       -1.496928   -3.524758   -0.934836
     18          6           0       -0.265109   -2.825284   -0.657178
     19          6           0       -1.611219   -4.971493   -1.390583
     20          6           0       -4.022390   -2.900731   -0.779420
     21          6           0       -4.413907   -3.359814    0.624465
     22          6           0       -5.920021   -3.549819    0.827078
     23          8           0       -6.694327   -3.439326   -0.144123
     24          8           0       -6.328114   -3.822468    1.974742
     25          6           0        2.177199   -2.711111   -0.594377
     26          6           0        3.486565   -3.299901   -0.725974
     27          6           0        4.357073   -2.248457   -0.799642
     28          6           0        3.630986   -1.086835   -0.453372
     29          6           0        3.777097   -4.794450   -0.744555
     30          6           0        5.635529   -2.155796   -1.388016
     31          6           0        6.403027   -3.220598   -2.152412
     32          6           0        3.549816    1.279575    0.125707
     33          6           0        4.168260    2.558566    0.405614
     34          6           0        3.155792    3.428939    0.552724
     35          6           0        1.936804    2.647933    0.617000
     36          6           0        5.667786    2.836749    0.528651
     37          6           0        3.160709    4.839283    0.470760
     38          6           0        4.329621    5.815657    0.394968
     39          6           0       -0.499300    2.505772    0.834699
     40          6           0       -1.788819    3.127881    1.022625
     41          6           0       -2.726000    2.206661    0.646958
     42          6           0       -1.979690    1.007552    0.251152
     43          6           0       -2.062936    4.563454    1.479455
     44          6           0       -4.237221    2.435493    0.549054
     45          6           0       -4.522676    2.884367   -0.888457
     46          6           0       -5.962039    3.292759   -1.128965
     47          8           0       -6.264316    3.711526   -2.267450
     48          8           0       -6.793143    3.198227   -0.199038
     49          7           0       -0.504776   -1.504065   -0.347971
     50          7           0        2.263013   -1.346479   -0.413305
     51          7           0        2.172036    1.345818    0.236454
     52          7           0       -0.609798    1.205371    0.371142
     53         26           0        0.839391   -0.064255   -0.077962
     54          1           0       -5.804586   -3.577348    2.741184
     55          1           0       -3.924645   -4.289841    0.825894
     56          1           0       -4.066100   -2.632811    1.328309
     57          1           0       -4.548121   -2.002941   -1.029380
     58          1           0       -4.250264   -3.667102   -1.490509
     59          1           0       -4.537458    3.197891    1.237173
     60          1           0       -4.759700    1.525670    0.759141
     61          1           0       -3.889817    3.716179   -1.117540
     62          1           0       -4.281859    2.079274   -1.550826
     63          1           0       -6.622239    3.626692    0.642870
     64          1           0       -3.642398   -0.228639   -0.205385
     65          1           0        0.671568    4.176671    1.322336
     66          1           0        5.295065    0.183535   -0.211053
     67          1           0        1.034461   -4.463553   -0.877342
     68          1           0       -1.376548    5.228193    0.997902
     69          1           0       -3.064634    4.835344    1.219496
     70          1           0       -1.939175    4.629973    2.540190
     71          1           0       -0.680933   -5.472827   -1.222858
     72          1           0       -2.384793   -5.460133   -0.835862
     73          1           0       -1.848328   -4.999194   -2.433613
     74          1           0        4.725511   -4.979168   -0.284893
     75          1           0        3.012285   -5.313201   -0.205241
     76          1           0        3.797660   -5.141240   -1.756590
     77          1           0        5.822972    3.878461    0.717473
     78          1           0        6.071701    2.263709    1.336968
     79          1           0        6.157329    2.562616   -0.382447
     80          1           0        5.334741    5.448999    0.409008
     81          1           0        4.144695    6.867410    0.327746
     82          1           0        2.192087    5.293772    0.460203
     83          1           0        7.433211   -3.065857   -2.396700
     84          1           0        5.913501   -4.125429   -2.446597
     85          1           0        6.129144   -1.212384   -1.282102
     86          1           0        2.781570    0.135138   -2.908453
     87          1           0        1.792246   -1.190655   -3.471106
     88          1           0        1.769671    0.337235   -4.318519
     89          1           0        1.104795    2.345717   -3.541961
     90          1           0       -0.575583    3.874710   -3.331603
     91          1           0       -1.496102    2.396978   -3.183213
     92          1           0       -1.055617    3.299214   -1.753174
     93          1           0        1.148191    2.637383   -1.841066
     94          1           0        3.288583   -0.865035    5.263418
     95          1           0        2.025308   -1.945079    5.802589
     96          1           0        3.201652   -2.491951    4.632027
     97          1           0        3.025852   -0.605726    2.206780
     98          1           0       -1.181018   -0.701033    2.571091
     99          1           0       -0.155405   -1.453126    4.752188
 ---------------------------------------------------------------------

 SCF Done:  E(UPBE1PBE) =  -3879.19406351     A.U. after   34 cycles

 Alpha virt. eigenvalues --    0.91561   0.91937   0.92360   0.92455   0.92857
 Alpha virt. eigenvalues --    0.92938   0.93314   0.93347   0.93893   0.93919
 Alpha virt. eigenvalues --    0.94448   0.94490   0.94555   0.95088   0.95322

  Beta  occ. eigenvalues -- -256.53896 -89.13168 -30.27180 -26.10420 -26.10319
  Beta  occ. eigenvalues --  -26.10308 -19.34392 -19.33160 -19.24897 -19.24547
  Beta  occ. eigenvalues --  -14.55317 -14.49240 -14.48491 -14.48445 -14.48324
  Beta  occ. eigenvalues --  -14.47795 -10.42679 -10.42174 -10.38949 -10.36826
  Beta  occ. eigenvalues --  -10.36402 -10.36336 -10.36198 -10.36154 -10.36096
  Beta  occ. eigenvalues --  -10.36093 -10.36013 -10.35731 -10.34039 -10.34009
  Beta  occ. eigenvalues --  -10.33988 -10.33865 -10.33681 -10.33669 -10.33592
  Beta  occ. eigenvalues --  -10.33474 -10.33377 -10.33143 -10.33045 -10.32979
  Beta  occ. eigenvalues --  -10.32855 -10.32821 -10.32714 -10.32629 -10.32622
  Beta  occ. eigenvalues --  -10.32598 -10.32595 -10.32572 -10.32119 -10.31869
  Beta  occ. eigenvalues --  -10.31514 -10.31348 -10.31245 -10.30827 -10.30773
  Beta  occ. eigenvalues --  -10.30518 -10.29730  -8.11231  -6.04867  -6.04555
  Beta  occ. eigenvalues --   -6.04019  -3.56571  -2.31187  -2.30874  -2.30843
  Beta  occ. eigenvalues --   -1.24772  -1.23852  -1.17279  -1.10051  -1.09607
  Beta  occ. eigenvalues --   -1.09348  -1.08483  -1.08222  -1.07184  -1.01631
  Beta  occ. eigenvalues --   -0.95063  -0.94720  -0.93911  -0.93604  -0.93274
  Beta  occ. eigenvalues --   -0.92998  -0.92085  -0.91774  -0.91568  -0.89012
  Beta  occ. eigenvalues --   -0.88291  -0.86896  -0.86605  -0.86520  -0.85052
  Beta  occ. eigenvalues --   -0.83041  -0.82640  -0.82220  -0.81761  -0.81410
  Beta  occ. eigenvalues --   -0.79918  -0.78311  -0.77880  -0.77707  -0.76535
  Beta  occ. eigenvalues --   -0.76455  -0.75475  -0.74894  -0.74755  -0.73068
  Beta  occ. eigenvalues --   -0.72860  -0.72375  -0.70758  -0.70282  -0.68878
  Beta  occ. eigenvalues --   -0.67185  -0.66467  -0.65600  -0.65162  -0.64599
  Beta  occ. eigenvalues --   -0.63154  -0.63011  -0.62584  -0.62075  -0.61620
  Beta  occ. eigenvalues --   -0.60114  -0.59554  -0.59462  -0.59161  -0.59048
  Beta  occ. eigenvalues --   -0.58451  -0.58391  -0.58161  -0.57117  -0.56516
  Beta  occ. eigenvalues --   -0.55926  -0.55545  -0.55426  -0.55025  -0.54974
  Beta  occ. eigenvalues --   -0.54910  -0.54752  -0.54416  -0.54329  -0.54160
  Beta  occ. eigenvalues --   -0.54069  -0.53922  -0.53544  -0.53457  -0.53323
  Beta  occ. eigenvalues --   -0.53241  -0.52753  -0.52556  -0.52541  -0.52127
  Beta  occ. eigenvalues --   -0.51924  -0.51480  -0.51336  -0.51081  -0.51029
  Beta  occ. eigenvalues --   -0.50943  -0.50494  -0.50291  -0.49966  -0.49640
  Beta  occ. eigenvalues --   -0.49557  -0.48849  -0.48786  -0.48569  -0.48421
  Beta  occ. eigenvalues --   -0.48100  -0.47971  -0.47908  -0.47766  -0.47532
  Beta  occ. eigenvalues --   -0.47274  -0.46769  -0.46266  -0.46201  -0.45843
  Beta  occ. eigenvalues --   -0.45727  -0.45233  -0.44256  -0.43981  -0.43866
  Beta  occ. eigenvalues --   -0.43731  -0.43484  -0.42845  -0.42752  -0.41835
  Beta  occ. eigenvalues --   -0.41142  -0.40506  -0.39927  -0.39527  -0.38700
  Beta  occ. eigenvalues --   -0.38113  -0.36701  -0.35927  -0.35427  -0.34889
  Beta  occ. eigenvalues --   -0.34011  -0.33767  -0.32035  -0.31433  -0.30228
  Beta  occ. eigenvalues --   -0.29252
  Beta virt. eigenvalues --   -0.20951  -0.20696  -0.18311  -0.16820  -0.16807
  Beta virt. eigenvalues --   -0.14098  -0.12505  -0.11840  -0.09453  -0.09024
  Beta virt. eigenvalues --   -0.08089  -0.07840  -0.07526  -0.06649  -0.06540

 Mulliken charges and spin densities:
               1          2
     1  C   -0.344897   0.000955
     2  C    0.114079   0.004867
     3  N   -0.204117   0.003095
     4  C   -0.172599   0.001819
     5  C    0.026071   0.004329
     6  N   -0.030924   0.059024
     7  C   -0.363644  -0.000537
     8  C   -0.169509   0.002165
     9  S    0.046968   0.109634
    10  C   -0.384262   0.002273
    11  C   -0.544353  -0.018321
    12  C   -0.480463  -0.029210
    13  C   -0.485417  -0.026677
    14  C   -0.413930  -0.013683
    15  C    0.301430   0.020557
    16  C   -0.001080   0.019142
    17  C   -0.078392   0.016944
    18  C    0.305851   0.024632
    19  C   -0.380969   0.000538
    20  C   -0.284049  -0.000595
    21  C   -0.309077   0.000787
    22  C    0.315293   0.000178
    23  O   -0.344638   0.000050
    24  O   -0.279027   0.000074
    25  C    0.222056   0.024024
    26  C   -0.057187   0.011810
    27  C    0.006604   0.037565
    28  C    0.252205   0.017695
    29  C   -0.413958   0.000479
    30  C   -0.170444  -0.056211
    31  C   -0.279804   0.086375
    32  C    0.261757   0.022582
    33  C   -0.096203   0.003617
    34  C    0.055722   0.029772
    35  C    0.167501   0.013713
    36  C   -0.347559   0.000738
    37  C   -0.174899  -0.046126
    38  C   -0.263357   0.071395
    39  C    0.200042   0.014813
    40  C   -0.090849   0.018622
    41  C    0.092077   0.015762
    42  C    0.193212   0.022073
    43  C   -0.392266  -0.000014
    44  C   -0.348548  -0.000341
    45  C   -0.243939   0.000798
    46  C    0.304421   0.000102
    47  O   -0.332859   0.000280
    48  O   -0.296849   0.000020
    49  N    0.017723   0.041164
    50  N    0.005929   0.045770
    51  N    0.005267   0.039580
    52  N    0.039582   0.044611
    53  Fe  -0.316464   4.341076
    54  H    0.339146  -0.000003
    55  H    0.148375  -0.000032
    56  H    0.120736  -0.000015
    57  H    0.140552   0.000173
    58  H    0.151819   0.000445
    59  H    0.137311   0.000444
    60  H    0.136524   0.000139
    61  H    0.144735  -0.000054
    62  H    0.145604  -0.000010
    63  H    0.345611   0.000021
    64  H    0.131062   0.000448
    65  H    0.142643   0.000228
    66  H    0.138812   0.000736
    67  H    0.120500   0.000949
    68  H    0.145371   0.000322
    69  H    0.134451   0.000426
    70  H    0.160256   0.000735
    71  H    0.131567   0.000033
    72  H    0.140185   0.000480
    73  H    0.164175   0.000749
    74  H    0.172527   0.000390
    75  H    0.139989   0.000017
    76  H    0.157481   0.000726
    77  H    0.118318   0.000289
    78  H    0.150650  -0.000092
    79  H    0.148728   0.000121
    80  H    0.133641  -0.002897
    81  H    0.159350  -0.003050
    82  H    0.117993   0.002091
    83  H    0.161576  -0.003742
    84  H    0.152344  -0.003634
    85  H    0.113288   0.002748
    86  H    0.158232   0.002678
    87  H    0.161966  -0.000314
    88  H    0.177294   0.003774
    89  H    0.143245   0.002619
    90  H    0.149384   0.000432
    91  H    0.136306   0.000581
    92  H    0.123943   0.000034
    93  H    0.134925   0.003041
    94  H    0.158093   0.000066
    95  H    0.127181   0.000128
    96  H    0.156730   0.000069
    97  H    0.171076   0.001235
    98  H    0.176097   0.000901
    99  H    0.242948   0.001788
 Sum of Mulliken charges =   1.00000   5.00000

 Dipole moment (field-independent basis, Debye):
    X=              9.5888    Y=             -1.3839    Z=              9.0164  Tot=             13.2347
 Quadrupole moment (field-independent basis, Debye-Ang):
   XX=           -309.3898   YY=           -258.5107   ZZ=           -272.8346
   XY=             -5.7508   XZ=            -46.6606   YZ=              2.7833

 Summary of Natural Population Analysis:

                                       Natural Population
                Natural  -----------------------------------------------
    Atom  No    Charge         Core      Valence    Rydberg      Total
 -----------------------------------------------------------------------
      C    1   -0.32118      0.99970     2.31800    0.00349     3.32118
      C    2    0.06420      0.99953     1.92736    0.00891     2.93580
      N    3   -0.23137      0.99968     2.72200    0.00970     3.73137
      C    4   -0.03428      0.99941     2.02616    0.00871     3.03428
      C    5    0.10368      0.99963     1.88583    0.01086     2.89632
      N    6   -0.15186      0.99971     2.62862    0.02353     3.65186
      C    7   -0.30332      0.99972     2.29783    0.00577     3.30332
      C    8   -0.26686      0.99963     2.25656    0.01067     3.26686
      S    9    0.35671      4.99899     2.62189    0.02242     7.64329
      C   10   -0.36995      0.99965     2.36048    0.00981     3.36995
      C   11   -0.12493      0.99950     2.11742    0.00801     3.12493
      C   12   -0.11656      0.99948     2.10933    0.00775     3.11656
      C   13   -0.12178      0.99933     2.11372    0.00873     3.12178
      C   14   -0.12219      0.99947     2.11482    0.00790     3.12219
      C   15    0.09353      0.99950     1.89696    0.01002     2.90647
      C   16    0.00421      0.99941     1.98741    0.00897     2.99579
      C   17    0.00652      0.99943     1.98592    0.00813     2.99348
      C   18    0.09209      0.99949     1.89821    0.01021     2.90791
      C   19   -0.31846      0.99970     2.31265    0.00611     3.31846
      C   20   -0.20973      0.99967     2.20205    0.00800     3.20973
      C   21   -0.25584      0.99963     2.24785    0.00836     3.25584
      C   22    0.37932      0.99976     1.60375    0.01717     2.62068
      O   23   -0.28481      0.99989     3.27279    0.01213     4.28481
      O   24   -0.31152      0.99981     3.29609    0.01563     4.31152
      C   25    0.08950      0.99950     1.90087    0.01013     2.91050
      C   26    0.02886      0.99945     1.96320    0.00848     2.97114
      C   27   -0.04628      0.99940     2.03679    0.01009     3.04628
      C   28    0.10396      0.99948     1.88585    0.01071     2.89604
      C   29   -0.32228      0.99970     2.31888    0.00371     3.32228
      C   30   -0.12195      0.99963     2.11533    0.00699     3.12195
      C   31   -0.13079      0.99975     2.12602    0.00502     3.13079
      C   32    0.08475      0.99949     1.90527    0.01050     2.91525
      C   33    0.02327      0.99940     1.96888    0.00845     2.97673
      C   34   -0.04655      0.99939     2.03735    0.00980     3.04655
      C   35    0.10928      0.99951     1.88061    0.01059     2.89072
      C   36   -0.31792      0.99969     2.31438    0.00386     3.31792
      C   37   -0.12023      0.99963     2.11373    0.00688     3.12023
      C   38   -0.13315      0.99974     2.12854    0.00487     3.13315
      C   39    0.09104      0.99947     1.89911    0.01038     2.90896
      C   40    0.00164      0.99941     1.99064    0.00830     2.99836
      C   41    0.00457      0.99943     1.98662    0.00938     2.99543
      C   42    0.09272      0.99951     1.89787    0.00990     2.90728
      C   43   -0.31962      0.99969     2.31621    0.00372     3.31962
      C   44   -0.21963      0.99967     2.21218    0.00778     3.21963
      C   45   -0.25552      0.99963     2.24722    0.00867     3.25552
      C   46    0.37928      0.99974     1.60360    0.01737     2.62072
      O   47   -0.27309      0.99989     3.26137    0.01182     4.27309
      O   48   -0.32723      0.99980     3.31222    0.01522     4.32723
      N   49   -0.18517      0.99969     2.66418    0.02129     3.68517
      N   50   -0.18655      0.99968     2.66656    0.02032     3.68655
      N   51   -0.18649      0.99969     2.66648    0.02032     3.68649
      N   52   -0.19118      0.99969     2.67032    0.02116     3.69118
     Fe   53    2.24044      8.99503     1.71633    0.04820    10.75956
      H   54    0.24902      0.00000     0.24995    0.00104     0.25098
      H   55    0.11477      0.00000     0.38449    0.00074     0.38523
      H   56    0.10488      0.00000     0.39431    0.00082     0.39512
      H   57    0.11599      0.00000     0.38329    0.00072     0.38401
      H   58    0.12193      0.00000     0.37739    0.00068     0.37807
      H   59    0.10465      0.00000     0.39448    0.00087     0.39535
      H   60    0.11349      0.00000     0.38573    0.00078     0.38651
      H   61    0.11916      0.00000     0.38021    0.00062     0.38084
      H   62    0.12264      0.00000     0.37671    0.00066     0.37736
      H   63    0.25383      0.00000     0.24511    0.00106     0.24617
      H   64    0.11398      0.00000     0.38480    0.00122     0.38602
      H   65    0.11618      0.00000     0.38264    0.00117     0.38382
      H   66    0.11617      0.00000     0.38247    0.00136     0.38383
      H   67    0.11453      0.00000     0.38408    0.00138     0.38547
      H   68    0.11441      0.00000     0.38492    0.00067     0.38559
      H   69    0.11133      0.00000     0.38800    0.00067     0.38867
      H   70    0.11715      0.00000     0.38215    0.00070     0.38285
      H   71    0.10955      0.00000     0.39004    0.00041     0.39045
      H   72    0.11362      0.00000     0.38575    0.00063     0.38638
      H   73    0.11962      0.00000     0.37976    0.00062     0.38038
      H   74    0.12104      0.00000     0.37826    0.00070     0.37896
      H   75    0.11221      0.00000     0.38715    0.00063     0.38779
      H   76    0.11553      0.00000     0.38363    0.00084     0.38447
      H   77    0.11315      0.00000     0.38608    0.00077     0.38685
      H   78    0.11714      0.00000     0.38221    0.00065     0.38286
      H   79    0.11514      0.00000     0.38415    0.00070     0.38486
      H   80    0.08948      0.00000     0.40968    0.00084     0.41052
      H   81    0.10439      0.00000     0.39500    0.00061     0.39561
      H   82    0.10341      0.00000     0.39573    0.00086     0.39659
      H   83    0.10374      0.00000     0.39564    0.00062     0.39626
      H   84    0.09590      0.00000     0.40329    0.00081     0.40410
      H   85    0.10254      0.00000     0.39662    0.00084     0.39746
      H   86    0.11498      0.00000     0.38415    0.00087     0.38502
      H   87    0.12334      0.00000     0.37623    0.00043     0.37666
      H   88    0.12157      0.00000     0.37786    0.00057     0.37843
      H   89    0.11756      0.00000     0.38177    0.00066     0.38244
      H   90    0.11478      0.00000     0.38475    0.00047     0.38522
      H   91    0.11085      0.00000     0.38846    0.00069     0.38915
      H   92    0.10588      0.00000     0.39326    0.00087     0.39412
      H   93    0.11489      0.00000     0.38401    0.00111     0.38511
      H   94    0.11965      0.00000     0.37973    0.00062     0.38035
      H   95    0.11125      0.00000     0.38817    0.00057     0.38875
      H   96    0.11921      0.00000     0.38016    0.00063     0.38079
      H   97    0.11926      0.00000     0.37998    0.00076     0.38074
      H   98    0.11312      0.00000     0.38603    0.00084     0.38688
      H   99    0.21178      0.00000     0.28742    0.00081     0.28822
 =======================================================================
   * Total *    3.00001     64.97351   135.39603    0.63046   200.99999

 Normal termination of Gaussian 16 at Tue Nov 15 19:00:14 2022.
