 Gaussian 16, Revision A.03,
 Gaussian 16:  ES64L-G16RevA.03 25-Dec-2016

 ----------------------------------------------------------------------
 # PBE1PBE/def2TZVP scf=maxcycle=999 empiricaldispersion=GD3BJ int=(gri
 d=ultrafine) geom=check pop=nbo
 ----------------------------------------------------------------------

 ----------
 1b5a_III_H
 ----------
 Structure from the checkpoint file:  "1b5a_III_H.chk"
 Charge =  1 Multiplicity = 6

                         Standard orientation:
 ---------------------------------------------------------------------
 Center     Atomic      Atomic             Coordinates (Angstroms)
 Number     Number       Type             X           Y           Z
 ---------------------------------------------------------------------
      1          6           0        1.822459   -0.204196   -5.160051
      2          6           0        1.443312    0.269498   -3.778031
      3          7           0        1.622745    1.575295   -3.357622
      4          6           0        0.890149   -0.401502   -2.726746
      5          6           0        1.195310    1.675088   -2.106875
      6          7           0        0.742509    0.448659   -1.717684
      7          1           0        2.525157   -1.007285   -5.081534
      8          1           0        2.263669    0.603743   -5.705459
      9          1           0        2.010057    2.318583   -3.903656
     10          1           0        0.617061   -1.456716   -2.717567
     11          1           0        1.204513    2.578232   -1.496990
     12          6           0       -1.359905   -2.535927    4.714293
     13          6           0       -0.603859   -1.624691    3.777790
     14          7           0        0.140067   -0.544517    4.219724
     15          6           0       -0.485706   -1.642705    2.418882
     16          6           0        0.677941    0.052612    3.166584
     17          7           0        0.288196   -0.629105    2.051133
     18          1           0       -0.854456   -2.577898    5.656450
     19          1           0       -1.410605   -3.518052    4.292677
     20          1           0        0.254065   -0.263689    5.172681
     21          1           0       -0.948483   -2.367714    1.749327
     22          1           0        1.318658    0.933440    3.186871
     23          6           0       -2.405893    0.735873    0.123793
     24          6           0       -0.016447   -3.323287   -0.689450
     25          6           0        4.106264   -0.995989    0.113382
     26          6           0        1.716236    3.060879    0.927265
     27          6           0       -2.137435   -0.529901   -0.163961
     28          6           0       -3.117312   -1.568038   -0.467938
     29          6           0       -2.437829   -2.703497   -0.701899
     30          6           0       -1.045652   -2.398374   -0.545654
     31          6           0       -3.064250   -4.052640   -1.020718
     32          6           0       -4.599460   -1.658239    0.041989
     33          6           0       -5.715795   -2.363684   -0.763180
     34          6           0       -6.869633   -2.843749    0.107943
     35          8           0       -7.858649   -3.387439   -0.443014
     36          8           0       -6.796173   -2.697599    1.354317
     37          6           0        1.321012   -3.031400   -0.527142
     38          6           0        2.375999   -4.015005   -0.704604
     39          6           0        3.532583   -3.370862   -0.480903
     40          6           0        3.214530   -1.973773   -0.183521
     41          6           0        2.240927   -5.489719   -1.045917
     42          6           0        4.911631   -3.982340   -0.536275
     43          6           0        5.320496   -5.029398   -1.014908
     44          6           0        3.829922    0.298084    0.396885
     45          6           0        4.817221    1.305557    0.707160
     46          6           0        4.122439    2.484760    0.919828
     47          6           0        2.733518    2.170553    0.777756
     48          6           0        6.304387    1.181331    0.760475
     49          6           0        4.762420    3.791613    1.257321
     50          6           0        5.727804    4.204173    0.926562
     51          6           0        0.374573    2.794447    0.777300
     52          6           0       -0.714566    3.777468    0.941985
     53          6           0       -1.832685    3.107377    0.716520
     54          6           0       -1.507326    1.735563    0.408472
     55          6           0       -0.540910    5.226161    1.282942
     56          6           0       -3.351383    3.598882    0.481113
     57          6           0       -3.611216    3.819734   -1.029503
     58          6           0       -3.972645    5.274625   -1.330147
     59          8           0       -5.113556    5.705784   -1.484092
     60          8           0       -2.870216    5.914998   -1.692564
     61          7           0       -0.889982   -1.085706   -0.200333
     62          7           0        1.853214   -1.819593   -0.207534
     63          7           0        2.576913    0.840156    0.441536
     64          7           0       -0.169585    1.566680    0.452184
     65         26           0        0.838423   -0.138846    0.128005
     66          1           0       -0.309675   -4.294157   -1.062144
     67          1           0        5.177062   -1.246659    0.076607
     68          1           0        1.957221    4.090901    1.198743
     69          1           0        5.643716   -3.130823   -0.231767
     70          1           0        3.868538    4.402019    1.874220
     71          1           0       -3.472744    1.062189    0.135051
     72          1           0       -3.246367   -4.260828   -2.000365
     73          1           0       -3.888304   -4.392661   -0.314396
     74          1           0       -2.242975   -4.996520   -0.678947
     75          1           0       -4.962131   -0.655746    0.354509
     76          1           0       -4.679302   -2.427191    0.839252
     77          1           0       -5.297903   -3.249986   -1.286053
     78          1           0       -6.125789   -1.670720   -1.528707
     79          1           0        2.265324   -5.551736   -2.400622
     80          1           0        1.158365   -5.749867   -0.977269
     81          1           0        2.898576   -6.080535   -0.782023
     82          1           0        6.350528   -5.388855   -0.872010
     83          1           0        4.670084   -5.617532   -1.677093
     84          1           0        6.773674    1.188750    0.097314
     85          1           0        6.332422   -0.030064    1.364923
     86          1           0        6.572472    1.683790    1.823549
     87          1           0        5.994939    5.247807    1.143958
     88          1           0        6.475707    3.589534    0.404204
     89          1           0       -0.194960    5.640086   -0.059864
     90          1           0        0.034334    5.434738    1.727007
     91          1           0       -1.616944    5.694819    1.048731
     92          1           0       -3.630646    4.530018    1.021616
     93          1           0       -4.031919    2.800099    0.845086
     94          1           0       -4.418121    3.138938   -1.382727
     95          1           0       -2.713539    3.557725   -1.624975
     96          1           0        0.947337   -0.544855   -5.672898
     97          1           0       -2.350524   -2.157697    4.857526
     98          1           0       -5.830098    5.373030   -0.938710
     99          1           0       -7.234151   -3.321882    1.937451
 ---------------------------------------------------------------------

 SCF Done:  E(UPBE1PBE) =  -3626.89612586     A.U. after   30 cycles

 Alpha virt. eigenvalues --    1.04488   1.05005   1.05291   1.05507   1.05661
 Alpha virt. eigenvalues --    1.06151   1.06354   1.06643   1.06925   1.07434
 Alpha virt. eigenvalues --    1.07807   1.08009   1.08405   1.08874   1.09210

  Beta  occ. eigenvalues -- -256.53151 -30.26391 -26.09599 -26.09564 -26.09539
  Beta  occ. eigenvalues --  -19.36112 -19.34031 -19.24430 -19.24390 -14.55432
  Beta  occ. eigenvalues --  -14.55249 -14.49047 -14.49046 -14.47336 -14.47034
  Beta  occ. eigenvalues --  -14.46694 -14.46521 -10.43521 -10.42595 -10.39023
  Beta  occ. eigenvalues --  -10.38985 -10.36044 -10.35855 -10.35274 -10.35100
  Beta  occ. eigenvalues --  -10.35077 -10.35035 -10.34899 -10.34796 -10.34681
  Beta  occ. eigenvalues --  -10.34513 -10.33721 -10.33582 -10.33370 -10.32735
  Beta  occ. eigenvalues --  -10.32458 -10.32331 -10.32315 -10.32221 -10.32159
  Beta  occ. eigenvalues --  -10.32107 -10.32074 -10.32001 -10.31880 -10.31817
  Beta  occ. eigenvalues --  -10.31816 -10.31719 -10.31712 -10.31639 -10.31583
  Beta  occ. eigenvalues --  -10.31489 -10.31366 -10.31270 -10.31078 -10.31043
  Beta  occ. eigenvalues --  -10.30448 -10.29418 -10.28407 -10.26691  -3.55671
  Beta  occ. eigenvalues --   -2.30149  -2.30014  -2.29957  -1.26229  -1.24260
  Beta  occ. eigenvalues --   -1.16690  -1.16460  -1.09019  -1.08849  -1.07954
  Beta  occ. eigenvalues --   -1.07821  -1.06769  -1.06644  -1.02097  -1.01671
  Beta  occ. eigenvalues --   -0.94755  -0.94299  -0.92762  -0.92515  -0.92131
  Beta  occ. eigenvalues --   -0.91571  -0.91336  -0.90470  -0.90391  -0.88920
  Beta  occ. eigenvalues --   -0.88072  -0.87770  -0.87193  -0.86168  -0.83999
  Beta  occ. eigenvalues --   -0.82237  -0.81770  -0.81620  -0.81528  -0.81029
  Beta  occ. eigenvalues --   -0.79443  -0.78557  -0.77735  -0.76359  -0.76005
  Beta  occ. eigenvalues --   -0.75918  -0.75629  -0.74261  -0.72798  -0.72069
  Beta  occ. eigenvalues --   -0.71888  -0.70172  -0.69727  -0.69080  -0.68098
  Beta  occ. eigenvalues --   -0.66691  -0.66327  -0.66224  -0.64779  -0.64194
  Beta  occ. eigenvalues --   -0.63409  -0.62578  -0.62364  -0.61956  -0.61506
  Beta  occ. eigenvalues --   -0.60560  -0.59654  -0.59480  -0.59109  -0.58639
  Beta  occ. eigenvalues --   -0.58365  -0.57996  -0.57693  -0.57600  -0.57197
  Beta  occ. eigenvalues --   -0.57085  -0.56634  -0.56328  -0.56081  -0.55725
  Beta  occ. eigenvalues --   -0.55276  -0.54737  -0.54580  -0.54537  -0.54366
  Beta  occ. eigenvalues --   -0.53987  -0.53815  -0.53612  -0.53213  -0.52903
  Beta  occ. eigenvalues --   -0.52897  -0.52650  -0.52569  -0.52176  -0.52038
  Beta  occ. eigenvalues --   -0.51988  -0.51551  -0.51502  -0.51183  -0.51082
  Beta  occ. eigenvalues --   -0.50539  -0.50464  -0.50039  -0.49664  -0.49271
  Beta  occ. eigenvalues --   -0.49018  -0.48514  -0.48149  -0.47748  -0.47382
  Beta  occ. eigenvalues --   -0.46718  -0.46319  -0.46074  -0.45786  -0.45632
  Beta  occ. eigenvalues --   -0.45186  -0.44942  -0.44772  -0.44554  -0.44058
  Beta  occ. eigenvalues --   -0.43919  -0.43603  -0.43322  -0.42846  -0.42804
  Beta  occ. eigenvalues --   -0.42399  -0.42054  -0.41870  -0.41581  -0.40950
  Beta  occ. eigenvalues --   -0.39957  -0.39535  -0.38885  -0.38452  -0.38295
  Beta  occ. eigenvalues --   -0.38215  -0.37728  -0.34742  -0.34559  -0.34105
  Beta  occ. eigenvalues --   -0.33554  -0.33383  -0.33120  -0.32732  -0.32351
  Beta  occ. eigenvalues --   -0.29741  -0.28974
  Beta virt. eigenvalues --   -0.19373  -0.19011  -0.17356  -0.15497  -0.15275
  Beta virt. eigenvalues --   -0.11317  -0.10932  -0.09336  -0.08791  -0.08299
  Beta virt. eigenvalues --   -0.07660  -0.07255  -0.07193  -0.06663  -0.06384

 Mulliken charges and spin densities:
               1          2
     1  C   -0.349739   0.001524
     2  C    0.075067   0.006158
     3  N   -0.181199   0.005470
     4  C   -0.143654   0.004055
     5  C   -0.001260   0.023237
     6  N   -0.018065   0.070480
     7  H    0.157017   0.000117
     8  H    0.129627   0.000225
     9  H    0.251796   0.001444
    10  H    0.172529   0.001543
    11  H    0.213410  -0.000035
    12  C   -0.366012   0.001168
    13  C    0.090213   0.006127
    14  N   -0.190222   0.003214
    15  C   -0.123525  -0.000036
    16  C   -0.010004   0.008394
    17  N   -0.024615   0.054454
    18  H    0.137878   0.000141
    19  H    0.153548   0.000047
    20  H    0.249312   0.001366
    21  H    0.154932   0.001968
    22  H    0.182940   0.000560
    23  C   -0.427818  -0.015515
    24  C   -0.556981  -0.015536
    25  C   -0.485684  -0.029521
    26  C   -0.592255  -0.014747
    27  C    0.285181   0.024230
    28  C   -0.027092   0.012249
    29  C   -0.006790   0.013495
    30  C    0.159592   0.018639
    31  C   -0.497573   0.000598
    32  C   -0.274935   0.000349
    33  C   -0.238522   0.000585
    34  C    0.281265   0.000069
    35  O   -0.358323   0.000088
    36  O   -0.336799   0.000018
    37  C    0.236366   0.015353
    38  C    0.018177   0.016933
    39  C    0.051445   0.015706
    40  C    0.265487   0.025773
    41  C   -0.517767  -0.000653
    42  C   -0.183634  -0.002477
    43  C   -0.286766   0.005637
    44  C    0.324864   0.023235
    45  C   -0.078204   0.010017
    46  C    0.072712   0.022156
    47  C    0.326114   0.013088
    48  C   -0.486344   0.000551
    49  C   -0.195046  -0.001767
    50  C   -0.258937   0.003650
    51  C    0.162052   0.015154
    52  C   -0.012769   0.015328
    53  C   -0.104181   0.009493
    54  C    0.324265   0.021937
    55  C   -0.488869   0.000228
    56  C   -0.259647   0.000639
    57  C   -0.220420   0.000073
    58  C    0.293387  -0.000034
    59  O   -0.250443  -0.000003
    60  O   -0.418437   0.000058
    61  N   -0.004152   0.067472
    62  N    0.027190   0.036589
    63  N   -0.042078   0.042093
    64  N    0.010826   0.063487
    65  Fe  -0.124680   4.383116
    66  H    0.128284   0.000383
    67  H    0.127334   0.000756
    68  H    0.117679   0.000120
    69  H    0.099908   0.000209
    70  H    0.089176   0.000129
    71  H    0.090868  -0.000090
    72  H    0.193648   0.000384
    73  H    0.167115   0.000509
    74  H    0.124994   0.000356
    75  H    0.117817  -0.000026
    76  H    0.133841   0.000583
    77  H    0.163744  -0.000023
    78  H    0.136398   0.000049
    79  H    0.135089   0.002336
    80  H    0.161530   0.000189
    81  H    0.198669   0.000257
    82  H    0.146680  -0.000159
    83  H    0.144766  -0.000258
    84  H    0.176620   0.000116
    85  H    0.117829   0.000421
    86  H    0.204246   0.000466
    87  H    0.138472  -0.000004
    88  H    0.143929  -0.000146
    89  H    0.140885   0.002570
    90  H    0.174161  -0.000105
    91  H    0.190439   0.000635
    92  H    0.149436   0.000393
    93  H    0.131142   0.000084
    94  H    0.121718   0.000018
    95  H    0.147059   0.000046
    96  H    0.158109   0.000150
    97  H    0.154061   0.000189
    98  H    0.354805   0.000003
    99  H    0.355797   0.000003
 Sum of Mulliken charges =   1.00000   5.00000

 Dipole moment (field-independent basis, Debye):
    X=              2.7631    Y=             -1.1170    Z=              4.0875  Tot=              5.0587
 Quadrupole moment (field-independent basis, Debye-Ang):
   XX=           -262.8099   YY=           -289.8490   ZZ=           -256.7883
   XY=             -8.5625   XZ=            -31.9378   YZ=              2.5109

 Summary of Natural Population Analysis:

                                       Natural Population
                Natural  -----------------------------------------------
    Atom  No    Charge         Core      Valence    Rydberg      Total
 -----------------------------------------------------------------------
      C    1   -0.32055      0.99970     2.31748    0.00338     3.32055
      C    2    0.06360      0.99955     1.92795    0.00889     2.93640
      N    3   -0.22542      0.99968     2.71636    0.00938     3.72542
      C    4   -0.02218      0.99941     2.01352    0.00924     3.02218
      C    5    0.11632      0.99963     1.87345    0.01059     2.88368
      N    6   -0.15762      0.99965     2.63744    0.02053     3.65762
      H    7    0.11892      0.00000     0.38047    0.00061     0.38108
      H    8    0.11171      0.00000     0.38773    0.00056     0.38829
      H    9    0.21586      0.00000     0.28334    0.00080     0.28414
      H   10    0.12234      0.00000     0.37696    0.00070     0.37766
      H   11    0.12339      0.00000     0.37582    0.00079     0.37661
      C   12   -0.32014      0.99970     2.31711    0.00334     3.32014
      C   13    0.06173      0.99955     1.92990    0.00883     2.93827
      N   14   -0.22824      0.99968     2.71924    0.00932     3.72824
      C   15   -0.02409      0.99942     2.01515    0.00952     3.02409
      C   16    0.10112      0.99965     1.88853    0.01070     2.89888
      N   17   -0.16158      0.99970     2.63848    0.02340     3.66158
      H   18    0.11244      0.00000     0.38693    0.00063     0.38756
      H   19    0.11940      0.00000     0.38008    0.00052     0.38060
      H   20    0.21425      0.00000     0.28494    0.00081     0.28575
      H   21    0.12191      0.00000     0.37726    0.00083     0.37809
      H   22    0.11799      0.00000     0.38129    0.00072     0.38201
      C   23   -0.10885      0.99939     2.10086    0.00860     3.10885
      C   24   -0.12761      0.99946     2.12035    0.00779     3.12761
      C   25   -0.11293      0.99928     2.10470    0.00895     3.11293
      C   26   -0.12499      0.99943     2.11755    0.00801     3.12499
      C   27    0.08681      0.99942     1.90345    0.01033     2.91319
      C   28    0.00317      0.99933     1.98747    0.01002     2.99683
      C   29   -0.00946      0.99920     1.99852    0.01174     3.00946
      C   30    0.08280      0.99950     1.90668    0.01102     2.91720
      C   31   -0.31614      0.99968     2.31126    0.00520     3.31614
      C   32   -0.21955      0.99968     2.21243    0.00745     3.21955
      C   33   -0.25442      0.99964     2.24653    0.00825     3.25442
      C   34    0.37548      0.99976     1.60665    0.01810     2.62452
      O   35   -0.29431      0.99990     3.28239    0.01202     4.29431
      O   36   -0.33041      0.99981     3.31730    0.01331     4.33041
      C   37    0.09191      0.99949     1.89853    0.01007     2.90809
      C   38    0.00327      0.99938     1.98835    0.00900     2.99673
      C   39   -0.02034      0.99938     2.01167    0.00929     3.02034
      C   40    0.09901      0.99949     1.89088    0.01061     2.90099
      C   41   -0.27990      0.99957     2.27431    0.00602     3.27990
      C   42   -0.10401      0.99928     2.09354    0.01119     3.10401
      C   43   -0.18204      0.99926     2.17277    0.01001     3.18204
      C   44    0.08346      0.99946     1.90634    0.01074     2.91654
      C   45   -0.00183      0.99947     1.99344    0.00892     3.00183
      C   46   -0.01782      0.99943     2.00874    0.00965     3.01782
      C   47    0.07848      0.99946     1.91202    0.01004     2.92152
      C   48   -0.24388      0.99933     2.23644    0.00812     3.24388
      C   49   -0.09105      0.99868     2.07801    0.01435     3.09105
      C   50   -0.18272      0.99869     2.17210    0.01193     3.18272
      C   51    0.07803      0.99951     1.91233    0.01013     2.92197
      C   52   -0.01066      0.99934     2.00195    0.00938     3.01066
      C   53   -0.00906      0.99929     1.99980    0.00997     3.00906
      C   54    0.09461      0.99949     1.89531    0.01059     2.90539
      C   55   -0.20468      0.99910     2.19714    0.00844     3.20468
      C   56   -0.21117      0.99969     2.20441    0.00706     3.21117
      C   57   -0.25877      0.99965     2.25049    0.00863     3.25877
      C   58    0.37391      0.99973     1.60846    0.01789     2.62609
      O   59   -0.30304      0.99978     3.28629    0.01697     4.30304
      O   60   -0.30386      0.99992     3.29852    0.00542     4.30386
      N   61   -0.18010      0.99968     2.65885    0.02158     3.68010
      N   62   -0.18910      0.99968     2.66775    0.02166     3.68910
      N   63   -0.18979      0.99970     2.66820    0.02190     3.68979
      N   64   -0.17589      0.99968     2.65478    0.02143     3.67589
     Fe   65    2.40798      8.99476     1.55128    0.04598    10.59202
      H   66    0.11754      0.00000     0.38130    0.00116     0.38246
      H   67    0.11764      0.00000     0.38143    0.00092     0.38236
      H   68    0.11897      0.00000     0.38004    0.00099     0.38103
      H   69    0.09781      0.00000     0.40135    0.00084     0.40219
      H   70    0.08780      0.00000     0.41125    0.00095     0.41220
      H   71    0.11246      0.00000     0.38583    0.00170     0.38754
      H   72    0.11481      0.00000     0.38448    0.00071     0.38519
      H   73    0.11756      0.00000     0.38151    0.00093     0.38244
      H   74    0.10222      0.00000     0.39729    0.00049     0.39778
      H   75    0.11123      0.00000     0.38812    0.00065     0.38877
      H   76    0.11783      0.00000     0.38085    0.00132     0.38217
      H   77    0.12774      0.00000     0.37155    0.00071     0.37226
      H   78    0.12169      0.00000     0.37763    0.00067     0.37831
      H   79    0.09827      0.00000     0.40106    0.00067     0.40173
      H   80    0.11352      0.00000     0.38574    0.00074     0.38648
      H   81    0.09840      0.00000     0.40063    0.00097     0.40160
      H   82    0.11037      0.00000     0.38888    0.00076     0.38963
      H   83    0.10089      0.00000     0.39811    0.00100     0.39911
      H   84    0.05568      0.00000     0.44110    0.00322     0.44432
      H   85    0.09301      0.00000     0.40623    0.00076     0.40699
      H   86    0.12370      0.00000     0.37539    0.00091     0.37630
      H   87    0.11109      0.00000     0.38800    0.00092     0.38891
      H   88    0.10374      0.00000     0.39514    0.00112     0.39626
      H   89    0.09849      0.00000     0.40073    0.00078     0.40151
      H   90    0.02929      0.00000     0.46701    0.00369     0.47071
      H   91    0.12874      0.00000     0.37022    0.00104     0.37126
      H   92    0.11385      0.00000     0.38537    0.00078     0.38615
      H   93    0.10993      0.00000     0.38940    0.00067     0.39007
      H   94    0.10457      0.00000     0.39465    0.00079     0.39543
      H   95    0.12974      0.00000     0.36962    0.00064     0.37026
      H   96    0.11903      0.00000     0.38034    0.00062     0.38097
      H   97    0.11511      0.00000     0.38418    0.00072     0.38489
      H   98    0.25507      0.00000     0.24397    0.00096     0.24493
      H   99    0.26050      0.00000     0.23811    0.00138     0.23950
 =======================================================================
   * Total *    3.00003     62.96818   138.34477    0.68703   201.99997

 Normal termination of Gaussian 16 at Wed Feb  8 13:38:55 2023.
