 Gaussian 16, Revision A.03,
 Gaussian 16:  ES64L-G16RevA.03 25-Dec-2016

 ----------------------------------------------------------------------
 # PBE1PBE/def2TZVP empiricaldispersion=GD3BJ scf=maxcycle=999 geom=che
 ck pop=nbo
 ----------------------------------------------------------------------

 ----------
 1b5a_III_D
 ----------
 Structure from the checkpoint file:  "1b5a_III_D.chk"
 Charge =  1 Multiplicity = 2

                         Standard orientation:
 ---------------------------------------------------------------------
 Center     Atomic      Atomic             Coordinates (Angstroms)
 Number     Number       Type             X           Y           Z
 ---------------------------------------------------------------------
      1          6           0        1.822459   -0.204196   -5.160051
      2          6           0        1.443312    0.269498   -3.778031
      3          7           0        1.622745    1.575295   -3.357622
      4          6           0        0.890149   -0.401502   -2.726746
      5          6           0        1.195310    1.675088   -2.106875
      6          7           0        0.742509    0.448659   -1.717684
      7          1           0        2.525157   -1.007285   -5.081534
      8          1           0        2.263669    0.603743   -5.705459
      9          1           0        2.010057    2.318583   -3.903656
     10          1           0        0.617061   -1.456716   -2.717567
     11          1           0        1.204513    2.578232   -1.496990
     12          6           0       -1.359905   -2.535927    4.714293
     13          6           0       -0.603859   -1.624691    3.777790
     14          7           0        0.140067   -0.544517    4.219724
     15          6           0       -0.485706   -1.642705    2.418882
     16          6           0        0.677941    0.052612    3.166584
     17          7           0        0.288196   -0.629105    2.051133
     18          1           0       -0.854456   -2.577898    5.656450
     19          1           0       -1.410605   -3.518052    4.292677
     20          1           0        0.254065   -0.263689    5.172681
     21          1           0       -0.948483   -2.367714    1.749327
     22          1           0        1.318658    0.933440    3.186871
     23          6           0       -2.405893    0.735873    0.123793
     24          6           0       -0.016447   -3.323287   -0.689450
     25          6           0        4.106264   -0.995989    0.113382
     26          6           0        1.716236    3.060879    0.927265
     27          6           0       -2.137435   -0.529901   -0.163961
     28          6           0       -3.117312   -1.568038   -0.467938
     29          6           0       -2.437829   -2.703497   -0.701899
     30          6           0       -1.045652   -2.398374   -0.545654
     31          6           0       -3.064250   -4.052640   -1.020718
     32          6           0       -4.599460   -1.658239    0.041989
     33          6           0       -5.715795   -2.363684   -0.763180
     34          6           0       -6.869633   -2.843749    0.107943
     35          8           0       -7.858649   -3.387439   -0.443014
     36          8           0       -6.796173   -2.697599    1.354317
     37          6           0        1.321012   -3.031400   -0.527142
     38          6           0        2.375999   -4.015005   -0.704604
     39          6           0        3.532583   -3.370862   -0.480903
     40          6           0        3.214530   -1.973773   -0.183521
     41          6           0        2.240927   -5.489719   -1.045917
     42          6           0        4.911631   -3.982340   -0.536275
     43          6           0        5.320496   -5.029398   -1.014908
     44          6           0        3.829922    0.298084    0.396885
     45          6           0        4.817221    1.305557    0.707160
     46          6           0        4.122439    2.484760    0.919828
     47          6           0        2.733518    2.170553    0.777756
     48          6           0        6.304387    1.181331    0.760475
     49          6           0        4.762420    3.791613    1.257321
     50          6           0        5.727804    4.204173    0.926562
     51          6           0        0.374573    2.794447    0.777300
     52          6           0       -0.714566    3.777468    0.941985
     53          6           0       -1.832685    3.107377    0.716520
     54          6           0       -1.507326    1.735563    0.408472
     55          6           0       -0.540910    5.226161    1.282942
     56          6           0       -3.351383    3.598882    0.481113
     57          6           0       -3.611216    3.819734   -1.029503
     58          6           0       -3.972645    5.274625   -1.330147
     59          8           0       -5.113556    5.705784   -1.484092
     60          8           0       -2.870216    5.914998   -1.692564
     61          7           0       -0.889982   -1.085706   -0.200333
     62          7           0        1.853214   -1.819593   -0.207534
     63          7           0        2.576913    0.840156    0.441536
     64          7           0       -0.169585    1.566680    0.452184
     65         26           0        0.838423   -0.138846    0.128005
     66          1           0       -0.309675   -4.294157   -1.062144
     67          1           0        5.177062   -1.246659    0.076607
     68          1           0        1.957221    4.090901    1.198743
     69          1           0        5.643716   -3.130823   -0.231767
     70          1           0        3.868538    4.402019    1.874220
     71          1           0       -3.472744    1.062189    0.135051
     72          1           0       -3.246367   -4.260828   -2.000365
     73          1           0       -3.888304   -4.392661   -0.314396
     74          1           0       -2.242975   -4.996520   -0.678947
     75          1           0       -4.962131   -0.655746    0.354509
     76          1           0       -4.679302   -2.427191    0.839252
     77          1           0       -5.297903   -3.249986   -1.286053
     78          1           0       -6.125789   -1.670720   -1.528707
     79          1           0        2.265324   -5.551736   -2.400622
     80          1           0        1.158365   -5.749867   -0.977269
     81          1           0        2.898576   -6.080535   -0.782023
     82          1           0        6.350528   -5.388855   -0.872010
     83          1           0        4.670084   -5.617532   -1.677093
     84          1           0        6.773674    1.188750    0.097314
     85          1           0        6.332422   -0.030064    1.364923
     86          1           0        6.572472    1.683790    1.823549
     87          1           0        5.994939    5.247807    1.143958
     88          1           0        6.475707    3.589534    0.404204
     89          1           0       -0.194960    5.640086   -0.059864
     90          1           0        0.034334    5.434738    1.727007
     91          1           0       -1.616944    5.694819    1.048731
     92          1           0       -3.630646    4.530018    1.021616
     93          1           0       -4.031919    2.800099    0.845086
     94          1           0       -4.418121    3.138938   -1.382727
     95          1           0       -2.713539    3.557725   -1.624975
     96          1           0        0.947337   -0.544855   -5.672898
     97          1           0       -2.350524   -2.157697    4.857526
     98          1           0       -5.830098    5.373030   -0.938710
     99          1           0       -7.234151   -3.321882    1.937451
 ---------------------------------------------------------------------

 SCF Done:  E(UPBE1PBE) =  -3626.91795365     A.U. after   48 cycles

 Alpha virt. eigenvalues --    1.04164   1.04349   1.04756   1.05101   1.05427
 Alpha virt. eigenvalues --    1.05702   1.05939   1.06258   1.06490   1.06779
 Alpha virt. eigenvalues --    1.07116   1.07636   1.08066   1.08260   1.08491

  Beta  occ. eigenvalues -- -256.49936 -30.26485 -26.09499 -26.09265 -26.08675
  Beta  occ. eigenvalues --  -19.36114 -19.34044 -19.24430 -19.24404 -14.55866
  Beta  occ. eigenvalues --  -14.55466 -14.51009 -14.50612 -14.48481 -14.48346
  Beta  occ. eigenvalues --  -14.48205 -14.48191 -10.43520 -10.42610 -10.39522
  Beta  occ. eigenvalues --  -10.39237 -10.36388 -10.36098 -10.35175 -10.35127
  Beta  occ. eigenvalues --  -10.35089 -10.34885 -10.34846 -10.34734 -10.34585
  Beta  occ. eigenvalues --  -10.34316 -10.34093 -10.33649 -10.33585 -10.32724
  Beta  occ. eigenvalues --  -10.32484 -10.32356 -10.32239 -10.32111 -10.32075
  Beta  occ. eigenvalues --  -10.32072 -10.31969 -10.31962 -10.31866 -10.31832
  Beta  occ. eigenvalues --  -10.31807 -10.31649 -10.31598 -10.31581 -10.31574
  Beta  occ. eigenvalues --  -10.31518 -10.31461 -10.31174 -10.30996 -10.30989
  Beta  occ. eigenvalues --  -10.30349 -10.29300 -10.28286 -10.26551  -3.58824
  Beta  occ. eigenvalues --   -2.34123  -2.33942  -2.33713  -1.26231  -1.24273
  Beta  occ. eigenvalues --   -1.17255  -1.16828  -1.09240  -1.08863  -1.08125
  Beta  occ. eigenvalues --   -1.08058  -1.06957  -1.06650  -1.02720  -1.02127
  Beta  occ. eigenvalues --   -0.94656  -0.94221  -0.92704  -0.92508  -0.92157
  Beta  occ. eigenvalues --   -0.91565  -0.91334  -0.90817  -0.90613  -0.88852
  Beta  occ. eigenvalues --   -0.88068  -0.87792  -0.87110  -0.86130  -0.83980
  Beta  occ. eigenvalues --   -0.82251  -0.82011  -0.81820  -0.81569  -0.80958
  Beta  occ. eigenvalues --   -0.79422  -0.78561  -0.77772  -0.76424  -0.76333
  Beta  occ. eigenvalues --   -0.75966  -0.75914  -0.74272  -0.72836  -0.72452
  Beta  occ. eigenvalues --   -0.72124  -0.70097  -0.69660  -0.68987  -0.68220
  Beta  occ. eigenvalues --   -0.67020  -0.66523  -0.66247  -0.64773  -0.64233
  Beta  occ. eigenvalues --   -0.63357  -0.62598  -0.62349  -0.61965  -0.61507
  Beta  occ. eigenvalues --   -0.60562  -0.59560  -0.59469  -0.59147  -0.58885
  Beta  occ. eigenvalues --   -0.58628  -0.58229  -0.57933  -0.57760  -0.57182
  Beta  occ. eigenvalues --   -0.57093  -0.56659  -0.56334  -0.56225  -0.55822
  Beta  occ. eigenvalues --   -0.55333  -0.54805  -0.54671  -0.54490  -0.54340
  Beta  occ. eigenvalues --   -0.54070  -0.53844  -0.53681  -0.53369  -0.53091
  Beta  occ. eigenvalues --   -0.52908  -0.52811  -0.52628  -0.52283  -0.52140
  Beta  occ. eigenvalues --   -0.52137  -0.51662  -0.51498  -0.51338  -0.51153
  Beta  occ. eigenvalues --   -0.50700  -0.50470  -0.50119  -0.49762  -0.49255
  Beta  occ. eigenvalues --   -0.49034  -0.48576  -0.48244  -0.47755  -0.47560
  Beta  occ. eigenvalues --   -0.46762  -0.46602  -0.46328  -0.45771  -0.45690
  Beta  occ. eigenvalues --   -0.45180  -0.44999  -0.44869  -0.44679  -0.44188
  Beta  occ. eigenvalues --   -0.43985  -0.43772  -0.43379  -0.42886  -0.42858
  Beta  occ. eigenvalues --   -0.42497  -0.42188  -0.41950  -0.41535  -0.41007
  Beta  occ. eigenvalues --   -0.40282  -0.39484  -0.39051  -0.38901  -0.38316
  Beta  occ. eigenvalues --   -0.38257  -0.37949  -0.36987  -0.36339  -0.34693
  Beta  occ. eigenvalues --   -0.34574  -0.33963  -0.33668  -0.33247  -0.33002
  Beta  occ. eigenvalues --   -0.32649  -0.31856  -0.29854  -0.28933
  Beta virt. eigenvalues --   -0.18736  -0.17279  -0.15056  -0.12682  -0.11273
  Beta virt. eigenvalues --   -0.10173  -0.08867  -0.08697  -0.08217  -0.07284
  Beta virt. eigenvalues --   -0.07219  -0.06677  -0.06442  -0.06145  -0.05785

 Mulliken charges and spin densities:
               1          2
     1  C   -0.348780   0.000109
     2  C    0.077644  -0.002035
     3  N   -0.178717   0.002741
     4  C   -0.143129   0.003516
     5  C    0.004466   0.010189
     6  N    0.014856  -0.025703
     7  H    0.158462  -0.000004
     8  H    0.130132   0.000003
     9  H    0.254176  -0.000165
    10  H    0.174780  -0.000116
    11  H    0.214711  -0.000403
    12  C   -0.365413  -0.000339
    13  C    0.092760   0.000968
    14  N   -0.189812   0.001537
    15  C   -0.126542   0.000356
    16  C   -0.007433   0.013040
    17  N    0.001750  -0.020897
    18  H    0.138451  -0.000060
    19  H    0.154296   0.000066
    20  H    0.250963  -0.000080
    21  H    0.156219   0.000027
    22  H    0.184668  -0.000675
    23  C   -0.423672  -0.000518
    24  C   -0.558034  -0.002847
    25  C   -0.481188  -0.012582
    26  C   -0.590130  -0.000536
    27  C    0.281103   0.000321
    28  C   -0.027246   0.013245
    29  C   -0.009006  -0.006657
    30  C    0.139228   0.010170
    31  C   -0.497483  -0.000005
    32  C   -0.274442  -0.001159
    33  C   -0.238497   0.000395
    34  C    0.281339  -0.000042
    35  O   -0.358251  -0.000014
    36  O   -0.336828   0.000021
    37  C    0.222701   0.009292
    38  C    0.016048  -0.002912
    39  C    0.050644   0.012527
    40  C    0.260712   0.004914
    41  C   -0.517525  -0.000494
    42  C   -0.183464  -0.003889
    43  C   -0.287749   0.006135
    44  C    0.322183   0.004461
    45  C   -0.079124   0.009838
    46  C    0.069267   0.000040
    47  C    0.310381   0.004261
    48  C   -0.486367  -0.000619
    49  C   -0.194849  -0.000774
    50  C   -0.259802   0.000265
    51  C    0.142516   0.004944
    52  C   -0.015232  -0.003907
    53  C   -0.103992   0.007163
    54  C    0.319130   0.000167
    55  C   -0.488930  -0.000213
    56  C   -0.259750  -0.000558
    57  C   -0.219702   0.000251
    58  C    0.293297  -0.000004
    59  O   -0.250468   0.000005
    60  O   -0.418370   0.000017
    61  N    0.058934  -0.034453
    62  N    0.083804  -0.036781
    63  N    0.018589  -0.031792
    64  N    0.071375  -0.031680
    65  Fe  -0.356427   1.101503
    66  H    0.128299   0.000119
    67  H    0.126931   0.000395
    68  H    0.117595  -0.000031
    69  H    0.099646   0.000292
    70  H    0.088212  -0.000000
    71  H    0.090236  -0.000241
    72  H    0.193392  -0.000179
    73  H    0.166823  -0.000183
    74  H    0.125121  -0.000152
    75  H    0.118053   0.000004
    76  H    0.133534   0.000848
    77  H    0.163882  -0.000024
    78  H    0.136372   0.000077
    79  H    0.133108  -0.000027
    80  H    0.160639  -0.000023
    81  H    0.198400  -0.000033
    82  H    0.146287  -0.000362
    83  H    0.144524  -0.000305
    84  H    0.176361   0.000170
    85  H    0.117487   0.000429
    86  H    0.204282   0.000214
    87  H    0.137916  -0.000054
    88  H    0.143352  -0.000041
    89  H    0.138912  -0.000515
    90  H    0.174258  -0.000003
    91  H    0.190185  -0.000176
    92  H    0.149712  -0.000029
    93  H    0.131117   0.000133
    94  H    0.121677   0.000022
    95  H    0.146233  -0.000013
    96  H    0.158937  -0.000030
    97  H    0.154706   0.000134
    98  H    0.354796   0.000000
    99  H    0.355789   0.000006
 Sum of Mulliken charges =   1.00000   1.00000

 Dipole moment (field-independent basis, Debye):
    X=              2.5530    Y=             -1.0766    Z=              3.9883  Tot=              4.8563
 Quadrupole moment (field-independent basis, Debye-Ang):
   XX=           -263.1885   YY=           -290.2365   ZZ=           -253.8211
   XY=             -8.2625   XZ=            -32.5390   YZ=              1.6223

 Summary of Natural Population Analysis:

                                       Natural Population
                Natural  -----------------------------------------------
    Atom  No    Charge         Core      Valence    Rydberg      Total
 -----------------------------------------------------------------------
      C    1   -0.32048      0.99969     2.31771    0.00307     3.32048
      C    2    0.05685      0.99957     1.93452    0.00906     2.94315
      N    3   -0.22761      0.99968     2.71823    0.00970     3.72761
      C    4   -0.02347      0.99944     2.01466    0.00938     3.02347
      C    5    0.10878      0.99967     1.88091    0.01063     2.89122
      N    6   -0.16860      0.99964     2.64816    0.02080     3.66860
      H    7    0.11933      0.00000     0.38011    0.00056     0.38067
      H    8    0.11175      0.00000     0.38770    0.00055     0.38825
      H    9    0.21618      0.00000     0.28306    0.00076     0.28382
      H   10    0.12151      0.00000     0.37774    0.00075     0.37849
      H   11    0.12320      0.00000     0.37595    0.00085     0.37680
      C   12   -0.32020      0.99969     2.31742    0.00308     3.32020
      C   13    0.05704      0.99956     1.93411    0.00929     2.94296
      N   14   -0.23113      0.99968     2.72179    0.00966     3.73113
      C   15   -0.02789      0.99944     2.01814    0.01031     3.02789
      C   16    0.10296      0.99968     1.88804    0.00932     2.89704
      N   17   -0.17866      0.99969     2.65591    0.02307     3.67866
      H   18    0.11254      0.00000     0.38685    0.00060     0.38746
      H   19    0.11966      0.00000     0.37986    0.00048     0.38034
      H   20    0.21441      0.00000     0.28478    0.00081     0.28559
      H   21    0.12166      0.00000     0.37743    0.00090     0.37834
      H   22    0.11732      0.00000     0.38184    0.00084     0.38268
      C   23   -0.11129      0.99939     2.10282    0.00908     3.11129
      C   24   -0.12864      0.99947     2.12107    0.00810     3.12864
      C   25   -0.11823      0.99942     2.11036    0.00845     3.11823
      C   26   -0.12755      0.99944     2.11980    0.00831     3.12755
      C   27    0.07271      0.99943     1.91729    0.01057     2.92729
      C   28    0.00535      0.99933     1.98550    0.00982     2.99465
      C   29   -0.02932      0.99937     2.02071    0.00923     3.02932
      C   30    0.08272      0.99950     1.90703    0.01074     2.91728
      C   31   -0.31480      0.99967     2.30995    0.00517     3.31480
      C   32   -0.22000      0.99968     2.21280    0.00752     3.22000
      C   33   -0.25448      0.99964     2.24659    0.00825     3.25448
      C   34    0.37545      0.99976     1.60668    0.01810     2.62455
      O   35   -0.29431      0.99990     3.28239    0.01202     4.29431
      O   36   -0.33041      0.99981     3.31730    0.01330     4.33041
      C   37    0.08775      0.99951     1.90238    0.01036     2.91225
      C   38   -0.00974      0.99938     2.00127    0.00909     3.00974
      C   39   -0.02263      0.99938     2.01373    0.00952     3.02263
      C   40    0.08813      0.99950     1.90239    0.00998     2.91187
      C   41   -0.27922      0.99957     2.27364    0.00601     3.27922
      C   42   -0.10427      0.99928     2.09382    0.01118     3.10427
      C   43   -0.18264      0.99926     2.17333    0.01005     3.18264
      C   44    0.07296      0.99947     1.91745    0.01012     2.92704
      C   45   -0.00240      0.99948     1.99387    0.00906     3.00240
      C   46   -0.03229      0.99943     2.02306    0.00981     3.03229
      C   47    0.07509      0.99947     1.91500    0.01044     2.92491
      C   48   -0.24426      0.99933     2.23683    0.00810     3.24426
      C   49   -0.08993      0.99869     2.07690    0.01434     3.08993
      C   50   -0.18542      0.99869     2.17474    0.01198     3.18542
      C   51    0.07507      0.99952     1.91499    0.01041     2.92493
      C   52   -0.02316      0.99934     2.01424    0.00957     3.02316
      C   53   -0.01026      0.99930     2.00093    0.01003     3.01026
      C   54    0.07914      0.99950     1.91057    0.01079     2.92086
      C   55   -0.20419      0.99910     2.19664    0.00845     3.20419
      C   56   -0.21157      0.99969     2.20481    0.00707     3.21157
      C   57   -0.25871      0.99965     2.25040    0.00866     3.25871
      C   58    0.37389      0.99973     1.60849    0.01789     2.62611
      O   59   -0.30305      0.99978     3.28630    0.01697     4.30305
      O   60   -0.30385      0.99992     3.29851    0.00542     4.30385
      N   61   -0.20055      0.99965     2.67719    0.02371     3.70055
      N   62   -0.20093      0.99966     2.67751    0.02377     3.70093
      N   63   -0.20435      0.99968     2.68149    0.02318     3.70435
      N   64   -0.19450      0.99965     2.67190    0.02295     3.69450
     Fe   65    0.67640      8.99481     3.30466    0.02413    12.32360
      H   66    0.11672      0.00000     0.38212    0.00116     0.38328
      H   67    0.11653      0.00000     0.38253    0.00093     0.38347
      H   68    0.11819      0.00000     0.38080    0.00101     0.38181
      H   69    0.09770      0.00000     0.40144    0.00086     0.40230
      H   70    0.08742      0.00000     0.41162    0.00097     0.41258
      H   71    0.11151      0.00000     0.38675    0.00174     0.38849
      H   72    0.11436      0.00000     0.38493    0.00071     0.38564
      H   73    0.11708      0.00000     0.38197    0.00095     0.38292
      H   74    0.10211      0.00000     0.39740    0.00050     0.39789
      H   75    0.11134      0.00000     0.38801    0.00065     0.38866
      H   76    0.11788      0.00000     0.38079    0.00133     0.38212
      H   77    0.12780      0.00000     0.37149    0.00071     0.37220
      H   78    0.12170      0.00000     0.37762    0.00067     0.37830
      H   79    0.09620      0.00000     0.40311    0.00069     0.40380
      H   80    0.11308      0.00000     0.38617    0.00074     0.38692
      H   81    0.09812      0.00000     0.40091    0.00098     0.40188
      H   82    0.11019      0.00000     0.38905    0.00076     0.38981
      H   83    0.10087      0.00000     0.39813    0.00100     0.39913
      H   84    0.05558      0.00000     0.44120    0.00322     0.44442
      H   85    0.09287      0.00000     0.40636    0.00077     0.40713
      H   86    0.12368      0.00000     0.37539    0.00093     0.37632
      H   87    0.11090      0.00000     0.38818    0.00092     0.38910
      H   88    0.10366      0.00000     0.39522    0.00112     0.39634
      H   89    0.09609      0.00000     0.40312    0.00079     0.40391
      H   90    0.02909      0.00000     0.46721    0.00369     0.47091
      H   91    0.12841      0.00000     0.37053    0.00106     0.37159
      H   92    0.11382      0.00000     0.38540    0.00079     0.38618
      H   93    0.10996      0.00000     0.38936    0.00068     0.39004
      H   94    0.10452      0.00000     0.39469    0.00079     0.39548
      H   95    0.12963      0.00000     0.36973    0.00064     0.37037
      H   96    0.11925      0.00000     0.38018    0.00057     0.38075
      H   97    0.11529      0.00000     0.38406    0.00065     0.38471
      H   98    0.25507      0.00000     0.24398    0.00096     0.24493
      H   99    0.26050      0.00000     0.23812    0.00138     0.23950
 =======================================================================
   * Total *    1.00000     62.96867   140.35980    0.67152   204.00000

 Normal termination of Gaussian 16 at Mon Feb  6 09:17:21 2023.
