 Gaussian 16, Revision A.03,

 ----------------------------------------------------------------------
 # PBE1PBE/def2TZVP scf=maxcycle=999 empiricaldispersion=GD3BJ int=(gri
 d=ultrafine) geom=check pop=nbo guess=read
 ----------------------------------------------------------------------

 ----------
 1c75_III_D
 ----------
 Structure from the checkpoint file:  "1c75_III_D.chk"
 Charge =  1 Multiplicity = 2

 SCF Done:  E(UPBE1PBE) =  -3881.26165582     A.U. after    1 cycles

 Alpha virt. eigenvalues --    0.99213   0.99392   0.99753   0.99908   1.00161
 Alpha virt. eigenvalues --    1.00693   1.01191   1.01307   1.01462   1.01664
 Alpha virt. eigenvalues --    1.01871   1.02288   1.02581   1.02874   1.03048

  Beta  occ. eigenvalues -- -256.41264 -89.11188 -30.18402 -26.01189 -26.00834
  Beta  occ. eigenvalues --  -26.00783 -19.32261 -19.32176 -19.25976 -19.24930
  Beta  occ. eigenvalues --  -14.52060 -14.48558 -14.47911 -14.47621 -14.47534
  Beta  occ. eigenvalues --  -14.47062 -10.42756 -10.41716 -10.35819 -10.35765
  Beta  occ. eigenvalues --  -10.35681 -10.35596 -10.35391 -10.35354 -10.35328
  Beta  occ. eigenvalues --  -10.35138 -10.35136 -10.34848 -10.32776 -10.32681
  Beta  occ. eigenvalues --  -10.32025 -10.31842 -10.31799 -10.31565 -10.31416
  Beta  occ. eigenvalues --  -10.31113 -10.31087 -10.30869 -10.30805 -10.30796
  Beta  occ. eigenvalues --  -10.30652 -10.30486 -10.30336 -10.30262 -10.30208
  Beta  occ. eigenvalues --  -10.29985 -10.29025 -10.28431 -10.28414 -10.28372
  Beta  occ. eigenvalues --  -10.28207 -10.28196 -10.27555 -10.27022 -10.26578
  Beta  occ. eigenvalues --  -10.26289 -10.24849  -8.09016  -6.02661  -6.02368
  Beta  occ. eigenvalues --   -6.01859  -3.52968  -2.28973  -2.28320  -2.28204
  Beta  occ. eigenvalues --   -1.25826  -1.23156  -1.16331  -1.10262  -1.09986
  Beta  occ. eigenvalues --   -1.08691  -1.07731  -1.07263  -1.06394  -1.01962
  Beta  occ. eigenvalues --   -0.94844  -0.94452  -0.93739  -0.93381  -0.92868
  Beta  occ. eigenvalues --   -0.92565  -0.92436  -0.91710  -0.90471  -0.90398
  Beta  occ. eigenvalues --   -0.89582  -0.87693  -0.87227  -0.87013  -0.86719
  Beta  occ. eigenvalues --   -0.85355  -0.84149  -0.83002  -0.82515  -0.82121
  Beta  occ. eigenvalues --   -0.80892  -0.80041  -0.79868  -0.77207  -0.76907
  Beta  occ. eigenvalues --   -0.76486  -0.76286  -0.74482  -0.73731  -0.73332
  Beta  occ. eigenvalues --   -0.73080  -0.72999  -0.71110  -0.70047  -0.69530
  Beta  occ. eigenvalues --   -0.67249  -0.66861  -0.65815  -0.65727  -0.64315
  Beta  occ. eigenvalues --   -0.63378  -0.62931  -0.62741  -0.61914  -0.60666
  Beta  occ. eigenvalues --   -0.59771  -0.59496  -0.59076  -0.58875  -0.58616
  Beta  occ. eigenvalues --   -0.58441  -0.58123  -0.57855  -0.57657  -0.57421
  Beta  occ. eigenvalues --   -0.57198  -0.56606  -0.56219  -0.55909  -0.55646
  Beta  occ. eigenvalues --   -0.55533  -0.55186  -0.55092  -0.55030  -0.54991
  Beta  occ. eigenvalues --   -0.54543  -0.54055  -0.53844  -0.53818  -0.53464
  Beta  occ. eigenvalues --   -0.52961  -0.52768  -0.52371  -0.52171  -0.51882
  Beta  occ. eigenvalues --   -0.51504  -0.51410  -0.51248  -0.51106  -0.51037
  Beta  occ. eigenvalues --   -0.50778  -0.50598  -0.50506  -0.50091  -0.49917
  Beta  occ. eigenvalues --   -0.49776  -0.49676  -0.49406  -0.48974  -0.48696
  Beta  occ. eigenvalues --   -0.48088  -0.47981  -0.47484  -0.47256  -0.47071
  Beta  occ. eigenvalues --   -0.46509  -0.46277  -0.46075  -0.45708  -0.45508
  Beta  occ. eigenvalues --   -0.45007  -0.44914  -0.44798  -0.44521  -0.43885
  Beta  occ. eigenvalues --   -0.43673  -0.43396  -0.42712  -0.42534  -0.42303
  Beta  occ. eigenvalues --   -0.42065  -0.41955  -0.41098  -0.40710  -0.39865
  Beta  occ. eigenvalues --   -0.39779  -0.37632  -0.37475  -0.36161  -0.35970
  Beta  occ. eigenvalues --   -0.35753  -0.35468  -0.34412  -0.33868  -0.33518
  Beta  occ. eigenvalues --   -0.32947  -0.30641  -0.29645  -0.29157  -0.28869
  Beta virt. eigenvalues --   -0.24393  -0.16314  -0.15966  -0.10844  -0.09557
  Beta virt. eigenvalues --   -0.07197  -0.06911  -0.06291  -0.05649  -0.05466
  Beta virt. eigenvalues --   -0.04500  -0.04434  -0.04317  -0.04048  -0.03637

 Mulliken charges and spin densities:
               1          2
     1  C   -0.369308   0.000073
     2  C    0.207611  -0.000564
     3  N   -0.171343   0.000184
     4  C   -0.267872   0.000981
     5  C   -0.001679   0.002598
     6  N    0.087619  -0.001017
     7  H    0.146978  -0.000008
     8  H    0.147167  -0.000006
     9  H    0.166040  -0.000011
    10  H    0.142815   0.000175
    11  H    0.187855  -0.000283
    12  C   -0.328106   0.000190
    13  C   -0.178698   0.000942
    14  S    0.048393   0.003838
    15  C   -0.374219   0.000667
    16  H    0.104500  -0.000241
    17  H    0.129634   0.000346
    18  H    0.142900   0.000119
    19  H    0.126448  -0.000717
    20  H    0.143946  -0.000030
    21  H    0.149719  -0.000351
    22  H    0.176082   0.000166
    23  Fe  -0.551016  -0.072913
    24  C   -0.442808  -0.102987
    25  C   -0.547419  -0.103525
    26  C   -0.593609  -0.108867
    27  C   -0.565129  -0.098513
    28  N    0.035804  -0.071076
    29  C    0.263969   0.180434
    30  C   -0.208125   0.011238
    31  C   -0.049164   0.012978
    32  C    0.275456   0.210033
    33  C   -0.333343  -0.000258
    34  C   -0.173019  -0.002804
    35  C   -0.149875   0.002092
    36  C    0.280857   0.000090
    37  O   -0.380130   0.000022
    38  O   -0.276457   0.000024
    39  N    0.055252  -0.076825
    40  C    0.263532   0.193682
    41  C   -0.090762   0.046391
    42  C   -0.027915  -0.011936
    43  C    0.333460   0.240976
    44  C   -0.327070  -0.002110
    45  C   -0.255479  -0.001457
    46  C   -0.350547   0.001150
    47  N    0.035937  -0.066160
    48  C    0.314511   0.204495
    49  C   -0.102486   0.007632
    50  C   -0.073101   0.025600
    51  C    0.347860   0.195431
    52  C   -0.389829  -0.001251
    53  C   -0.218594  -0.003504
    54  C   -0.362229   0.002216
    55  N    0.028454  -0.061568
    56  C    0.294077   0.191384
    57  C   -0.126338   0.005986
    58  C    0.035675   0.022232
    59  C    0.137481   0.189939
    60  C   -0.344645  -0.000525
    61  C   -0.312458  -0.003630
    62  C   -0.161396   0.003784
    63  C    0.281190   0.000278
    64  O   -0.366693   0.000092
    65  O   -0.363761   0.000272
    66  H    0.254554   0.004640
    67  H    0.170815   0.003771
    68  H    0.131017   0.004663
    69  H    0.145211   0.004085
    70  H    0.148208   0.001470
    71  H    0.134375   0.001045
    72  H    0.152591  -0.000271
    73  H    0.135759  -0.000168
    74  H    0.142279   0.001008
    75  H    0.108670   0.000036
    76  H    0.140732   0.000300
    77  H    0.258217   0.000003
    78  H    0.149345   0.002287
    79  H    0.138559  -0.000255
    80  H    0.151872   0.002233
    81  H    0.107905  -0.000110
    82  H    0.139585   0.000066
    83  H    0.122655   0.000052
    84  H    0.141429   0.000401
    85  H    0.168298   0.001593
    86  H    0.155861  -0.000053
    87  H    0.109309   0.000037
    88  H    0.128582   0.000001
    89  H    0.137946   0.000293
    90  H    0.150881   0.001098
    91  H    0.149156   0.000781
    92  H    0.139454  -0.000246
    93  H    0.160162   0.001071
    94  H    0.146887  -0.000137
    95  H    0.128727   0.000207
    96  H    0.151243  -0.000289
    97  H    0.359153   0.000080
    98  H    0.130056   0.002859
    99  H    0.125388   0.000271
   100  H    0.131285   0.001412
   101  H    0.122525   0.000228
   102  H    0.150942  -0.000024
   103  H    0.123769  -0.000032
 Sum of Mulliken charges =   1.00000   1.00000

 Dipole moment (field-independent basis, Debye):
    X=              3.8147    Y=              4.2223    Z=              4.5502  Tot=              7.2859
 Quadrupole moment (field-independent basis, Debye-Ang):
   XX=           -235.9766   YY=           -257.5825   ZZ=           -273.2646
   XY=            -28.6117   XZ=            -13.0500   YZ=              4.9690

 Summary of Natural Population Analysis:

                                       Natural Population
                Natural  -----------------------------------------------
    Atom  No    Charge         Core      Valence    Rydberg      Total
 -----------------------------------------------------------------------
      C    1   -0.32143      0.99970     2.31842    0.00330     3.32143
      C    2    0.06621      0.99961     1.92653    0.00765     2.93379
      N    3   -0.21801      0.99970     2.70895    0.00936     3.71801
      C    4   -0.03252      0.99945     2.02377    0.00929     3.03252
      C    5    0.10337      0.99962     1.88846    0.00855     2.89663
      N    6   -0.14781      0.99969     2.62185    0.02627     3.64781
      H    7    0.11859      0.00000     0.38094    0.00047     0.38141
      H    8    0.11342      0.00000     0.38588    0.00070     0.38658
      H    9    0.19031      0.00000     0.30880    0.00090     0.30969
      H   10    0.09579      0.00000     0.40334    0.00087     0.40421
      H   11    0.09336      0.00000     0.40552    0.00112     0.40664
      C   12   -0.30244      0.99972     2.29903    0.00368     3.30244
      C   13   -0.24363      0.99944     2.23800    0.00619     3.24363
      S   14    0.27922      4.99933     2.70038    0.02108     7.72078
      C   15   -0.33713      0.99940     2.33268    0.00504     3.33713
      H   16    0.10591      0.00000     0.39317    0.00092     0.39409
      H   17    0.10752      0.00000     0.39183    0.00065     0.39248
      H   18    0.10371      0.00000     0.39533    0.00096     0.39629
      H   19    0.10150      0.00000     0.39709    0.00141     0.39850
      H   20    0.10230      0.00000     0.39658    0.00112     0.39770
      H   21    0.10906      0.00000     0.39021    0.00073     0.39094
      H   22    0.10511      0.00000     0.39407    0.00082     0.39489
     Fe   23   -0.10241      8.99509     4.08304    0.02428    13.10241
      C   24   -0.16527      0.99948     2.15767    0.00812     3.16527
      C   25   -0.15870      0.99949     2.15136    0.00786     3.15870
      C   26   -0.17016      0.99946     2.16246    0.00824     3.17016
      C   27   -0.16050      0.99948     2.15269    0.00833     3.16050
      N   28   -0.21488      0.99968     2.69077    0.02443     3.71488
      C   29    0.18829      0.99954     1.80236    0.00980     2.81171
      C   30    0.00043      0.99942     1.99089    0.00925     2.99957
      C   31    0.01992      0.99946     1.97290    0.00772     2.98008
      C   32    0.20511      0.99955     1.78562    0.00972     2.79489
      C   33   -0.30541      0.99957     2.30267    0.00318     3.30541
      C   34   -0.19147      0.99948     2.18589    0.00610     3.19147
      C   35   -0.24774      0.99942     2.24023    0.00809     3.24774
      C   36    0.38150      0.99965     1.60173    0.01712     2.61850
      O   37   -0.30621      0.99989     3.29400    0.01232     4.30621
      O   38   -0.30651      0.99984     3.29167    0.01500     4.30651
      N   39   -0.22160      0.99968     2.69839    0.02353     3.72160
      C   40    0.19376      0.99955     1.79690    0.00980     2.80624
      C   41    0.02894      0.99943     1.96375    0.00788     2.97106
      C   42   -0.01508      0.99944     2.00603    0.00961     3.01508
      C   43    0.22084      0.99954     1.76985    0.00976     2.77916
      C   44   -0.30584      0.99957     2.30307    0.00320     3.30584
      C   45   -0.21455      0.99968     2.20822    0.00666     3.21455
      C   46   -0.29446      0.99972     2.29133    0.00340     3.29446
      N   47   -0.21025      0.99969     2.68780    0.02277     3.71025
      C   48    0.20018      0.99952     1.79064    0.00966     2.79982
      C   49    0.00545      0.99938     1.98708    0.00810     2.99455
      C   50    0.00662      0.99939     1.98417    0.00982     2.99338
      C   51    0.19260      0.99953     1.79756    0.01031     2.80740
      C   52   -0.30431      0.99957     2.30141    0.00334     3.30431
      C   53   -0.21184      0.99969     2.20570    0.00644     3.21184
      C   54   -0.29463      0.99972     2.29208    0.00282     3.29463
      N   55   -0.21765      0.99967     2.69384    0.02414     3.71765
      C   56    0.19428      0.99955     1.79594    0.01023     2.80572
      C   57    0.00523      0.99942     1.98738    0.00797     2.99477
      C   58    0.00385      0.99944     1.98788    0.00883     2.99615
      C   59    0.18526      0.99956     1.80507    0.01010     2.81474
      C   60   -0.30514      0.99957     2.30236    0.00321     3.30514
      C   61   -0.19164      0.99947     2.18617    0.00601     3.19164
      C   62   -0.24794      0.99939     2.24043    0.00812     3.24794
      C   63    0.38674      0.99964     1.59669    0.01694     2.61326
      O   64   -0.34337      0.99981     3.32941    0.01415     4.34337
      O   65   -0.29711      0.99989     3.28603    0.01119     4.29711
      H   66    0.10665      0.00000     0.39211    0.00124     0.39335
      H   67    0.10023      0.00000     0.39857    0.00120     0.39977
      H   68    0.09986      0.00000     0.39862    0.00153     0.40014
      H   69    0.09795      0.00000     0.40024    0.00182     0.40205
      H   70    0.10741      0.00000     0.39189    0.00070     0.39259
      H   71    0.10927      0.00000     0.39004    0.00068     0.39073
      H   72    0.11377      0.00000     0.38555    0.00068     0.38623
      H   73    0.10978      0.00000     0.38960    0.00062     0.39022
      H   74    0.11258      0.00000     0.38683    0.00059     0.38742
      H   75    0.10925      0.00000     0.38995    0.00080     0.39075
      H   76    0.12420      0.00000     0.37535    0.00045     0.37580
      H   77    0.23390      0.00000     0.26473    0.00138     0.26610
      H   78    0.11011      0.00000     0.38922    0.00067     0.38989
      H   79    0.10777      0.00000     0.39157    0.00066     0.39223
      H   80    0.10988      0.00000     0.38944    0.00068     0.39012
      H   81    0.10437      0.00000     0.39495    0.00068     0.39563
      H   82    0.10892      0.00000     0.39047    0.00061     0.39108
      H   83    0.10262      0.00000     0.39668    0.00070     0.39738
      H   84    0.10581      0.00000     0.39353    0.00066     0.39419
      H   85    0.11070      0.00000     0.38861    0.00068     0.38930
      H   86    0.10839      0.00000     0.39092    0.00069     0.39161
      H   87    0.10479      0.00000     0.39463    0.00058     0.39521
      H   88    0.10213      0.00000     0.39721    0.00066     0.39787
      H   89    0.10841      0.00000     0.39101    0.00058     0.39159
      H   90    0.10980      0.00000     0.38949    0.00071     0.39020
      H   91    0.10915      0.00000     0.39015    0.00070     0.39085
      H   92    0.10752      0.00000     0.39184    0.00064     0.39248
      H   93    0.10846      0.00000     0.39064    0.00090     0.39154
      H   94    0.10564      0.00000     0.39379    0.00057     0.39436
      H   95    0.10992      0.00000     0.38959    0.00048     0.39008
      H   96    0.11636      0.00000     0.38260    0.00104     0.38364
      H   97    0.26052      0.00000     0.23843    0.00106     0.23948
      H   98    0.11307      0.00000     0.38612    0.00081     0.38693
      H   99    0.10438      0.00000     0.39498    0.00064     0.39562
      H  100    0.11321      0.00000     0.38604    0.00075     0.38679
      H  101    0.10394      0.00000     0.39535    0.00071     0.39606
      H  102    0.11388      0.00000     0.38542    0.00071     0.38612
      H  103    0.10867      0.00000     0.39070    0.00063     0.39133
 =======================================================================
   * Total *    1.00000     64.97269   139.43878    0.58853   205.00000

 Normal termination of Gaussian 16 at Tue Dec 27 16:39:07 2022.
 Gaussian 16:  ES64L-G16RevA.03 25-Dec-2016

 ----------------------------------------------------------------------
 # PBE1PBE/def2TZVP empiricaldispersion=GD3BJ int=(grid=ultrafine) geom
 =check guess=read scrf=(smd,solvent=Chloroform)
 ----------------------------------------------------------------------

 ---------------
 1c75_III_D_solv
 ---------------
 Structure from the checkpoint file:  "1c75_III_D.chk"
 Charge =  1 Multiplicity = 2

                         Standard orientation:
 ---------------------------------------------------------------------
 Center     Atomic      Atomic             Coordinates (Angstroms)
 Number     Number       Type             X           Y           Z
 ---------------------------------------------------------------------
      1          6           0        1.988514   -1.363995    5.135746
      2          6           0        1.309179   -0.922373    3.865371
      3          7           0        0.005782   -0.568227    3.838112
      4          6           0        1.756051   -0.761386    2.597404
      5          6           0       -0.335952   -0.240447    2.579235
      6          7           0        0.715961   -0.357934    1.803267
      7          1           0        2.974308   -1.713563    4.910108
      8          1           0        1.424313   -2.153895    5.585897
      9          1           0       -0.520717   -0.553825    4.517525
     10          1           0        2.629440   -0.902522    2.311305
     11          1           0       -1.182287    0.027172    2.302040
     12          6           0       -0.538977    2.854895   -2.850819
     13          6           0        0.743999    2.067983   -2.842584
     14         16           0        0.458144    0.324775   -2.459223
     15          6           0        1.848568   -0.410796   -3.328956
     16          1           0       -1.064358    2.690103   -1.933367
     17          1           0       -1.146958    2.537239   -3.672009
     18          1           0        1.168996    2.138248   -3.712570
     19          1           0        1.348256    2.445957   -2.184379
     20          1           0        2.669339   -0.059296   -2.975229
     21          1           0        1.831523   -1.362638   -3.211651
     22          1           0        1.788207   -0.201679   -4.263043
     23         26           0        0.669718   -0.018140   -0.161772
     24          6           0       -2.713399    0.144189   -0.277583
     25          6           0        0.540270   -3.380201   -0.671840
     26          6           0        4.084786   -0.133004   -0.236559
     27          6           0        0.848416    3.274303    0.657452
     28          7           0       -0.793312   -1.353772   -0.406581
     29          6           0       -2.146093   -1.114995   -0.454265
     30          6           0       -2.877517   -2.326387   -0.707635
     31          6           0       -1.965045   -3.330188   -0.760886
     32          6           0       -0.662602   -2.706960   -0.602356
     33          6           0       -2.183812   -4.793995   -0.952621
     34          6           0       -4.383827   -2.430037   -0.842890
     35          6           0       -5.159995   -2.131048    0.464821
     36          6           0       -4.818812   -2.940621    1.566014
     37          8           0       -4.588492   -4.162346    1.479615
     38          8           0       -4.691361   -2.323502    2.693573
     39          7           0        2.017936   -1.437479   -0.420487
     40          6           0        1.792795   -2.780983   -0.610582
     41          6           0        3.031816   -3.515482   -0.719231
     42          6           0        4.030271   -2.598608   -0.670152
     43          6           0        3.394405   -1.312418   -0.460420
     44          6           0        3.106396   -5.011587   -0.829910
     45          6           0        5.512963   -2.809285   -0.750856
     46          6           0        5.963607   -3.434159   -2.094961
     47          7           0        2.134629    1.300368    0.087860
     48          6           0        3.515668    1.070398    0.034713
     49          6           0        4.253078    2.255905    0.402831
     50          6           0        3.337668    3.200449    0.636623
     51          6           0        2.044600    2.611853    0.463037
     52          6           0        5.752708    2.311827    0.538780
     53          6           0        3.581766    4.590419    1.206500
     54          6           0        4.556243    5.404143    0.303384
     55          7           0       -0.660504    1.405443    0.129868
     56          6           0       -0.414291    2.714701    0.492022
     57          6           0       -1.646426    3.470204    0.624448
     58          6           0       -2.638221    2.587186    0.381157
     59          6           0       -2.009382    1.306271    0.048605
     60          6           0       -1.675237    4.925308    0.949865
     61          6           0       -4.126032    2.770340    0.328014
     62          6           0       -4.671151    2.796799   -1.161554
     63          6           0       -5.927392    2.177946   -1.276138
     64          8           0       -6.970381    2.892634   -1.403835
     65          8           0       -6.043991    0.927046   -1.176534
     66          1           0       -3.634535    0.218387   -0.386269
     67          1           0        0.511051   -4.303943   -0.766807
     68          1           0        5.013438   -0.166782   -0.275899
     69          1           0        0.891097    4.165906    0.918343
     70          1           0       -1.806272   -5.067098   -1.792366
     71          1           0       -1.759647   -5.276653   -0.239186
     72          1           0       -3.125639   -4.980108   -0.949012
     73          1           0       -4.609610   -3.325019   -1.140544
     74          1           0       -4.677892   -1.810106   -1.527780
     75          1           0       -5.008874   -1.204011    0.706366
     76          1           0       -6.108951   -2.235470    0.288526
     77          1           0       -4.576304   -2.870971    3.294210
     78          1           0        2.643552   -5.298239   -1.620463
     79          1           0        4.025894   -5.282644   -0.882036
     80          1           0        2.698208   -5.409909   -0.057960
     81          1           0        6.001492   -1.865054   -0.629750
     82          1           0        7.032465   -3.465567   -2.133100
     83          1           0        5.574521   -4.427722   -2.174606
     84          1           0        6.075426    1.475953    0.880472
     85          1           0        6.145827    2.479036   -0.321269
     86          1           0        5.993444    3.018033    1.142312
     87          1           0        2.649163    5.110599    1.274060
     88          1           0        5.464198    4.853535    0.171674
     89          1           0        4.772871    6.343324    0.768048
     90          1           0       -1.342105    5.061456    1.838891
     91          1           0       -1.124704    5.404267    0.325702
     92          1           0       -2.577784    5.247892    0.893025
     93          1           0       -4.553701    2.045972    0.810938
     94          1           0       -4.360564    3.601364    0.768919
     95          1           0       -4.739779    3.716793   -1.459659
     96          1           0       -4.038232    2.343435   -1.740735
     97          1           0       -7.542430    3.046284   -0.648353
     98          1           0        4.004329    4.499025    2.185268
     99          1           0        4.100909    5.574418   -0.649809
    100          1           0        5.812149   -3.456753    0.046748
    101          1           0        5.595075   -2.840761   -2.905493
    102          1           0        2.049333   -0.538135    5.813356
    103          1           0       -0.317703    3.896774   -2.952935
 ---------------------------------------------------------------------

 SCF Done:  E(UPBE1PBE) =  -3881.35027450     A.U. after  129 cycles
 Error termination via Lnk1e in /afs/math/software/gaussian/g16.A03/g16/l502.exe at Sun Jan  1 21:29:44 2023.
