 Gaussian 16, Revision A.03,

 ----------------------------------------------------------------------
 # PBE1PBE/def2TZVP scf=maxcycle=999 empiricaldispersion=GD3BJ int=(gri
 d=ultrafine) geom=check guess=read pop=nbo
 ----------------------------------------------------------------------

 ---------
 1c75_II_Q
 ---------
 Structure from the checkpoint file:  "1c75_II_Q.chk"
 Charge =  0 Multiplicity = 5

 SCF Done:  E(UPBE1PBE) =  -3881.40366820     A.U. after    3 cycles

 Summary of Natural Population Analysis:

                                       Natural Population
                Natural  -----------------------------------------------
    Atom  No    Charge         Core      Valence    Rydberg      Total
 -----------------------------------------------------------------------
      C    1   -0.32014      0.99970     2.31719    0.00325     3.32014
      C    2    0.06170      0.99961     1.93112    0.00758     2.93830
      N    3   -0.21762      0.99970     2.70891    0.00901     3.71762
      C    4   -0.02132      0.99944     2.01264    0.00924     3.02132
      C    5    0.11556      0.99960     1.87504    0.00980     2.88444
      N    6   -0.14801      0.99971     2.62021    0.02809     3.64801
      H    7    0.11795      0.00000     0.38158    0.00047     0.38205
      H    8    0.10980      0.00000     0.38945    0.00075     0.39020
      H    9    0.18855      0.00000     0.31062    0.00083     0.31145
      H   10    0.09972      0.00000     0.39938    0.00090     0.40028
      H   11    0.09752      0.00000     0.40137    0.00110     0.40248
      C   12   -0.30356      0.99972     2.29784    0.00599     3.30356
      C   13   -0.24331      0.99944     2.23439    0.00949     3.24331
      S   14    0.30625      4.99922     2.67428    0.02025     7.69375
      C   15   -0.33881      0.99940     2.33115    0.00826     3.33881
      H   16    0.11489      0.00000     0.38434    0.00077     0.38511
      H   17    0.10271      0.00000     0.39666    0.00063     0.39729
      H   18    0.10137      0.00000     0.39793    0.00070     0.39863
      H   19    0.10634      0.00000     0.39234    0.00132     0.39366
      H   20    0.10555      0.00000     0.39345    0.00100     0.39445
      H   21    0.11193      0.00000     0.38745    0.00062     0.38807
      H   22    0.10193      0.00000     0.39745    0.00062     0.39807
     Fe   23    1.54956      8.99529     2.42441    0.03075    11.45044
      C   24   -0.06469      0.99948     2.05721    0.00799     3.06469
      C   25   -0.12635      0.99950     2.11871    0.00814     3.12635
      C   26   -0.07591      0.99946     2.06803    0.00842     3.07591
      C   27   -0.12681      0.99949     2.11891    0.00841     3.12681
      N   28   -0.16781      0.99968     2.64974    0.01839     3.66781
      C   29    0.07997      0.99953     1.91100    0.00950     2.92003
      C   30    0.00644      0.99941     1.98501    0.00914     2.99356
      C   31   -0.00089      0.99940     1.99332    0.00816     3.00089
      C   32    0.11115      0.99954     1.87948    0.00983     2.88885
      C   33   -0.30592      0.99958     2.30309    0.00325     3.30592
      C   34   -0.18928      0.99949     2.18400    0.00579     3.18928
      C   35   -0.24953      0.99943     2.24179    0.00831     3.24953
      C   36    0.38486      0.99965     1.59826    0.01723     2.61514
      O   37   -0.31111      0.99989     3.29895    0.01227     4.31111
      O   38   -0.30744      0.99984     3.29247    0.01513     4.30744
      N   39   -0.24114      0.99967     2.71408    0.02738     3.74114
      C   40    0.11676      0.99953     1.87334    0.01037     2.88324
      C   41   -0.00977      0.99938     2.00231    0.00808     3.00977
      C   42    0.00556      0.99944     1.98557    0.00943     2.99444
      C   43    0.08854      0.99952     1.90167    0.01027     2.91146
      C   44   -0.30541      0.99958     2.30251    0.00332     3.30541
      C   45   -0.20962      0.99968     2.20344    0.00650     3.20962
      C   46   -0.29485      0.99972     2.29224    0.00288     3.29485
      N   47   -0.16492      0.99969     2.64720    0.01804     3.66492
      C   48    0.07559      0.99951     1.91510    0.00980     2.92441
      C   49    0.01815      0.99937     1.97411    0.00837     2.98185
      C   50   -0.02859      0.99938     2.01921    0.00999     3.02859
      C   51    0.11013      0.99952     1.88005    0.01029     2.88987
      C   52   -0.30555      0.99957     2.30261    0.00337     3.30555
      C   53   -0.20652      0.99969     2.20000    0.00683     3.20652
      C   54   -0.29807      0.99973     2.29550    0.00284     3.29807
      N   55   -0.24371      0.99966     2.71733    0.02671     3.74371
      C   56    0.11777      0.99953     1.87200    0.01070     2.88223
      C   57   -0.00877      0.99942     2.00140    0.00795     3.00877
      C   58    0.00770      0.99943     1.98433    0.00853     2.99230
      C   59    0.07970      0.99955     1.91026    0.01050     2.92030
      C   60   -0.30493      0.99958     2.30205    0.00330     3.30493
      C   61   -0.18833      0.99947     2.18256    0.00629     3.18833
      C   62   -0.25075      0.99940     2.24292    0.00843     3.25075
      C   63    0.38766      0.99964     1.59557    0.01713     2.61234
      O   64   -0.34819      0.99981     3.33433    0.01404     4.34819
      O   65   -0.29853      0.99989     3.28746    0.01118     4.29853
      H   66    0.10009      0.00000     0.39887    0.00104     0.39991
      H   67    0.09520      0.00000     0.40359    0.00121     0.40480
      H   68    0.09282      0.00000     0.40536    0.00182     0.40718
      H   69    0.09286      0.00000     0.40533    0.00181     0.40714
      H   70    0.10291      0.00000     0.39631    0.00077     0.39709
      H   71    0.10573      0.00000     0.39353    0.00074     0.39427
      H   72    0.10887      0.00000     0.39045    0.00068     0.39113
      H   73    0.10425      0.00000     0.39475    0.00100     0.39575
      H   74    0.11057      0.00000     0.38884    0.00059     0.38943
      H   75    0.11216      0.00000     0.38702    0.00082     0.38784
      H   76    0.11918      0.00000     0.38036    0.00046     0.38082
      H   77    0.23180      0.00000     0.26670    0.00151     0.26820
      H   78    0.10455      0.00000     0.39467    0.00078     0.39545
      H   79    0.10243      0.00000     0.39686    0.00070     0.39757
      H   80    0.10432      0.00000     0.39490    0.00079     0.39568
      H   81    0.10417      0.00000     0.39519    0.00064     0.39583
      H   82    0.10154      0.00000     0.39780    0.00065     0.39846
      H   83    0.09993      0.00000     0.39935    0.00072     0.40007
      H   84    0.10480      0.00000     0.39450    0.00070     0.39520
      H   85    0.10618      0.00000     0.39308    0.00074     0.39382
      H   86    0.10314      0.00000     0.39612    0.00073     0.39686
      H   87    0.10403      0.00000     0.39536    0.00061     0.39597
      H   88    0.10124      0.00000     0.39805    0.00071     0.39876
      H   89    0.10144      0.00000     0.39790    0.00066     0.39856
      H   90    0.10477      0.00000     0.39442    0.00081     0.39523
      H   91    0.10518      0.00000     0.39402    0.00079     0.39482
      H   92    0.10213      0.00000     0.39719    0.00068     0.39787
      H   93    0.10584      0.00000     0.39318    0.00098     0.39416
      H   94    0.10051      0.00000     0.39891    0.00058     0.39949
      H   95    0.10532      0.00000     0.39419    0.00049     0.39468
      H   96    0.11957      0.00000     0.37984    0.00060     0.38043
      H   97    0.25697      0.00000     0.24188    0.00115     0.24303
      H   98    0.10446      0.00000     0.39462    0.00093     0.39554
      H   99    0.10299      0.00000     0.39632    0.00070     0.39701
      H  100    0.10418      0.00000     0.39486    0.00096     0.39582
      H  101    0.10302      0.00000     0.39626    0.00072     0.39698
      H  102    0.11031      0.00000     0.38893    0.00076     0.38969
      H  103    0.10536      0.00000     0.39404    0.00060     0.39464
 =======================================================================
   * Total *    2.00001     64.97256   138.42188    0.60555   203.99999

 Normal termination of Gaussian 16 at Tue Dec 27 18:18:44 2022.
 Gaussian 16:  ES64L-G16RevA.03 25-Dec-2016

 ----------------------------------------------------------------------
 # PBE1PBE/def2TZVP empiricaldispersion=GD3BJ int=(grid=ultrafine) geom
 =check guess=read scrf=(smd,solvent=Chloroform)
 ----------------------------------------------------------------------

 --------------
 1c75_II_Q_solv
 --------------
 Structure from the checkpoint file:  "1c75_II_Q.chk"
 Charge =  0 Multiplicity = 5

                         Standard orientation:
 ---------------------------------------------------------------------
 Center     Atomic      Atomic             Coordinates (Angstroms)
 Number     Number       Type             X           Y           Z
 ---------------------------------------------------------------------
      1          6           0        1.988514   -1.363995    5.135746
      2          6           0        1.309179   -0.922373    3.865371
      3          7           0        0.005782   -0.568227    3.838112
      4          6           0        1.756051   -0.761386    2.597404
      5          6           0       -0.335952   -0.240447    2.579235
      6          7           0        0.715961   -0.357934    1.803267
      7          1           0        2.974308   -1.713563    4.910108
      8          1           0        1.424313   -2.153895    5.585897
      9          1           0       -0.520717   -0.553825    4.517525
     10          1           0        2.629440   -0.902522    2.311305
     11          1           0       -1.182287    0.027172    2.302040
     12          6           0       -0.538977    2.854895   -2.850819
     13          6           0        0.743999    2.067983   -2.842584
     14         16           0        0.458144    0.324775   -2.459223
     15          6           0        1.848568   -0.410796   -3.328956
     16          1           0       -1.064358    2.690103   -1.933367
     17          1           0       -1.146958    2.537239   -3.672009
     18          1           0        1.168996    2.138248   -3.712570
     19          1           0        1.348256    2.445957   -2.184379
     20          1           0        2.669339   -0.059296   -2.975229
     21          1           0        1.831523   -1.362638   -3.211651
     22          1           0        1.788207   -0.201679   -4.263043
     23         26           0        0.669718   -0.018140   -0.161772
     24          6           0       -2.713399    0.144189   -0.277583
     25          6           0        0.540270   -3.380201   -0.671840
     26          6           0        4.084786   -0.133004   -0.236559
     27          6           0        0.848416    3.274303    0.657452
     28          7           0       -0.793312   -1.353772   -0.406581
     29          6           0       -2.146093   -1.114995   -0.454265
     30          6           0       -2.877517   -2.326387   -0.707635
     31          6           0       -1.965045   -3.330188   -0.760886
     32          6           0       -0.662602   -2.706960   -0.602356
     33          6           0       -2.183812   -4.793995   -0.952621
     34          6           0       -4.383827   -2.430037   -0.842890
     35          6           0       -5.159995   -2.131048    0.464821
     36          6           0       -4.818812   -2.940621    1.566014
     37          8           0       -4.588492   -4.162346    1.479615
     38          8           0       -4.691361   -2.323502    2.693573
     39          7           0        2.017936   -1.437479   -0.420487
     40          6           0        1.792795   -2.780983   -0.610582
     41          6           0        3.031816   -3.515482   -0.719231
     42          6           0        4.030271   -2.598608   -0.670152
     43          6           0        3.394405   -1.312418   -0.460420
     44          6           0        3.106396   -5.011587   -0.829910
     45          6           0        5.512963   -2.809285   -0.750856
     46          6           0        5.963607   -3.434159   -2.094961
     47          7           0        2.134629    1.300368    0.087860
     48          6           0        3.515668    1.070398    0.034713
     49          6           0        4.253078    2.255905    0.402831
     50          6           0        3.337668    3.200449    0.636623
     51          6           0        2.044600    2.611853    0.463037
     52          6           0        5.752708    2.311827    0.538780
     53          6           0        3.581766    4.590419    1.206500
     54          6           0        4.556243    5.404143    0.303384
     55          7           0       -0.660504    1.405443    0.129868
     56          6           0       -0.414291    2.714701    0.492022
     57          6           0       -1.646426    3.470204    0.624448
     58          6           0       -2.638221    2.587186    0.381157
     59          6           0       -2.009382    1.306271    0.048605
     60          6           0       -1.675237    4.925308    0.949865
     61          6           0       -4.126032    2.770340    0.328014
     62          6           0       -4.671151    2.796799   -1.161554
     63          6           0       -5.927392    2.177946   -1.276138
     64          8           0       -6.970381    2.892634   -1.403835
     65          8           0       -6.043991    0.927046   -1.176534
     66          1           0       -3.634535    0.218387   -0.386269
     67          1           0        0.511051   -4.303943   -0.766807
     68          1           0        5.013438   -0.166782   -0.275899
     69          1           0        0.891097    4.165906    0.918343
     70          1           0       -1.806272   -5.067098   -1.792366
     71          1           0       -1.759647   -5.276653   -0.239186
     72          1           0       -3.125639   -4.980108   -0.949012
     73          1           0       -4.609610   -3.325019   -1.140544
     74          1           0       -4.677892   -1.810106   -1.527780
     75          1           0       -5.008874   -1.204011    0.706366
     76          1           0       -6.108951   -2.235470    0.288526
     77          1           0       -4.576304   -2.870971    3.294210
     78          1           0        2.643552   -5.298239   -1.620463
     79          1           0        4.025894   -5.282644   -0.882036
     80          1           0        2.698208   -5.409909   -0.057960
     81          1           0        6.001492   -1.865054   -0.629750
     82          1           0        7.032465   -3.465567   -2.133100
     83          1           0        5.574521   -4.427722   -2.174606
     84          1           0        6.075426    1.475953    0.880472
     85          1           0        6.145827    2.479036   -0.321269
     86          1           0        5.993444    3.018033    1.142312
     87          1           0        2.649163    5.110599    1.274060
     88          1           0        5.464198    4.853535    0.171674
     89          1           0        4.772871    6.343324    0.768048
     90          1           0       -1.342105    5.061456    1.838891
     91          1           0       -1.124704    5.404267    0.325702
     92          1           0       -2.577784    5.247892    0.893025
     93          1           0       -4.553701    2.045972    0.810938
     94          1           0       -4.360564    3.601364    0.768919
     95          1           0       -4.739779    3.716793   -1.459659
     96          1           0       -4.038232    2.343435   -1.740735
     97          1           0       -7.542430    3.046284   -0.648353
     98          1           0        4.004329    4.499025    2.185268
     99          1           0        4.100909    5.574418   -0.649809
    100          1           0        5.812149   -3.456753    0.046748
    101          1           0        5.595075   -2.840761   -2.905493
    102          1           0        2.049333   -0.538135    5.813356
    103          1           0       -0.317703    3.896774   -2.952935
 ---------------------------------------------------------------------

 SCF Done:  E(UPBE1PBE) =  -3881.45946944     A.U. after   48 cycles

 Alpha virt. eigenvalues --    1.07970   1.08163   1.08237   1.08789   1.08960
 Alpha virt. eigenvalues --    1.09070   1.09490   1.09849   1.10272   1.10675
 Alpha virt. eigenvalues --    1.10838   1.11107   1.11230   1.11638   1.12044

  Beta  occ. eigenvalues -- -256.39963 -89.02008 -30.14612 -25.98815 -25.97502
  Beta  occ. eigenvalues --  -25.96388 -19.24595 -19.23837 -19.17749 -19.17646
  Beta  occ. eigenvalues --  -14.42448 -14.38621 -14.38195 -14.37911 -14.35483
  Beta  occ. eigenvalues --  -14.35431 -10.34316 -10.34255 -10.26345 -10.25466
  Beta  occ. eigenvalues --  -10.23865 -10.23662 -10.23610 -10.23429 -10.22834
  Beta  occ. eigenvalues --  -10.22681 -10.22613 -10.22610 -10.21672 -10.21431
  Beta  occ. eigenvalues --  -10.21131 -10.21086 -10.21080 -10.20924 -10.20690
  Beta  occ. eigenvalues --  -10.20651 -10.20555 -10.20515 -10.20370 -10.20367
  Beta  occ. eigenvalues --  -10.20270 -10.19953 -10.19502 -10.19301 -10.19190
  Beta  occ. eigenvalues --  -10.19176 -10.19158 -10.19076 -10.19034 -10.18983
  Beta  occ. eigenvalues --  -10.18974 -10.17166 -10.17058 -10.16520 -10.16353
  Beta  occ. eigenvalues --  -10.16083 -10.15705  -7.99975  -5.93604  -5.93303
  Beta  occ. eigenvalues --   -5.92812  -3.45258  -2.22956  -2.18554  -2.18416
  Beta  occ. eigenvalues --   -1.18157  -1.14805  -1.06823  -1.03063  -1.01716
  Beta  occ. eigenvalues --   -0.97664  -0.96693  -0.95919  -0.95205  -0.92442
  Beta  occ. eigenvalues --   -0.84685  -0.84406  -0.84251  -0.82867  -0.82305
  Beta  occ. eigenvalues --   -0.82015  -0.81276  -0.80984  -0.80827  -0.79960
  Beta  occ. eigenvalues --   -0.79108  -0.78025  -0.77402  -0.76588  -0.75068
  Beta  occ. eigenvalues --   -0.74917  -0.74540  -0.72752  -0.72712  -0.72143
  Beta  occ. eigenvalues --   -0.70809  -0.70276  -0.69109  -0.68092  -0.67204
  Beta  occ. eigenvalues --   -0.65818  -0.65487  -0.65044  -0.64675  -0.63738
  Beta  occ. eigenvalues --   -0.63229  -0.63094  -0.62026  -0.58725  -0.58063
  Beta  occ. eigenvalues --   -0.57740  -0.55887  -0.55184  -0.54765  -0.54230
  Beta  occ. eigenvalues --   -0.53612  -0.52735  -0.51978  -0.51646  -0.51479
  Beta  occ. eigenvalues --   -0.50892  -0.49952  -0.49734  -0.49488  -0.48931
  Beta  occ. eigenvalues --   -0.48849  -0.48439  -0.48162  -0.47791  -0.47617
  Beta  occ. eigenvalues --   -0.47286  -0.46924  -0.46277  -0.46035  -0.45767
  Beta  occ. eigenvalues --   -0.45740  -0.45603  -0.45436  -0.45372  -0.45113
  Beta  occ. eigenvalues --   -0.44992  -0.44776  -0.44502  -0.43593  -0.43173
  Beta  occ. eigenvalues --   -0.43084  -0.42907  -0.42603  -0.42395  -0.42300
  Beta  occ. eigenvalues --   -0.42025  -0.41892  -0.41704  -0.41229  -0.40845
  Beta  occ. eigenvalues --   -0.40637  -0.40491  -0.40294  -0.40196  -0.39777
  Beta  occ. eigenvalues --   -0.39715  -0.39441  -0.39332  -0.38945  -0.38664
  Beta  occ. eigenvalues --   -0.38647  -0.38190  -0.37914  -0.37455  -0.37188
  Beta  occ. eigenvalues --   -0.37034  -0.36710  -0.36532  -0.36164  -0.35933
  Beta  occ. eigenvalues --   -0.35464  -0.35166  -0.35128  -0.34615  -0.34332
  Beta  occ. eigenvalues --   -0.33998  -0.33877  -0.33092  -0.32990  -0.32833
  Beta  occ. eigenvalues --   -0.32623  -0.32117  -0.32087  -0.31266  -0.30995
  Beta  occ. eigenvalues --   -0.29971  -0.28389  -0.27740  -0.27638  -0.26972
  Beta  occ. eigenvalues --   -0.26246  -0.26176  -0.24337  -0.23422  -0.23086
  Beta  occ. eigenvalues --   -0.22698  -0.21348  -0.17905  -0.17454
  Beta virt. eigenvalues --   -0.07749  -0.06421  -0.05663  -0.03381  -0.01492
  Beta virt. eigenvalues --    0.00244   0.00975   0.01334   0.02084   0.02462
  Beta virt. eigenvalues --    0.03577   0.03813   0.04808   0.05011   0.05536

 Mulliken charges and spin densities:
               1          2
     1  C   -0.404311   0.000665
     2  C    0.207854   0.004128
     3  N   -0.160075   0.002093
     4  C   -0.290112   0.001334
     5  C   -0.000726   0.007743
     6  N    0.090589   0.023067
     7  H    0.159734  -0.000001
     8  H    0.152679   0.000261
     9  H    0.191897   0.000715
    10  H    0.166364   0.000337
    11  H    0.205380  -0.000266
    12  C   -0.353997  -0.001444
    13  C   -0.174297   0.002235
    14  S    0.002397   0.047005
    15  C   -0.383037   0.000167
    16  H    0.126141   0.000263
    17  H    0.123893   0.000734
    18  H    0.148510   0.000795
    19  H    0.138793   0.000599
    20  H    0.155952  -0.000038
    21  H    0.162364  -0.000351
    22  H    0.177143   0.001256
    23  Fe  -0.412532   2.965367
    24  C   -0.574633   0.269390
    25  C   -0.528382  -0.099228
    26  C   -0.674508   0.237951
    27  C   -0.554385  -0.086945
    28  N   -0.016035   0.066921
    29  C    0.246782  -0.056774
    30  C   -0.207648   0.095814
    31  C   -0.052235  -0.045199
    32  C    0.178699   0.132516
    33  C   -0.378420   0.002720
    34  C   -0.195457  -0.007006
    35  C   -0.149063   0.003064
    36  C    0.290714   0.000530
    37  O   -0.430184  -0.000013
    38  O   -0.280906   0.000198
    39  N    0.056802  -0.082070
    40  C    0.171011   0.155266
    41  C   -0.104100  -0.032388
    42  C   -0.050609   0.100886
    43  C    0.292853  -0.031907
    44  C   -0.368178   0.000954
    45  C   -0.259673  -0.011197
    46  C   -0.388681   0.003549
    47  N   -0.030808   0.083348
    48  C    0.275340  -0.062849
    49  C   -0.126361   0.098813
    50  C   -0.065768  -0.051547
    51  C    0.250844   0.133634
    52  C   -0.419240  -0.005605
    53  C   -0.224746   0.005408
    54  C   -0.397120  -0.000911
    55  N    0.037530  -0.081828
    56  C    0.207701   0.165319
    57  C   -0.136743  -0.024580
    58  C   -0.001138   0.107020
    59  C    0.147933  -0.033478
    60  C   -0.392132   0.000552
    61  C   -0.308789  -0.011857
    62  C   -0.157573   0.005988
    63  C    0.281339   0.005019
    64  O   -0.398445  -0.000164
    65  O   -0.406491   0.001706
    66  H    0.259595  -0.015799
    67  H    0.172997   0.003647
    68  H    0.149155  -0.013872
    69  H    0.163309   0.003428
    70  H    0.149162  -0.000944
    71  H    0.141647  -0.000416
    72  H    0.141769  -0.000108
    73  H    0.133765   0.000608
    74  H    0.131424   0.002970
    75  H    0.113893   0.000688
    76  H    0.144654  -0.000237
    77  H    0.270884   0.000016
    78  H    0.147111  -0.000544
    79  H    0.141984  -0.000495
    80  H    0.149890  -0.000542
    81  H    0.115418   0.000628
    82  H    0.129663   0.000839
    83  H    0.127089  -0.000146
    84  H    0.147299   0.003196
    85  H    0.158945   0.003244
    86  H    0.154379   0.000744
    87  H    0.117002  -0.000299
    88  H    0.132691   0.000079
    89  H    0.129639  -0.000189
    90  H    0.149163  -0.000331
    91  H    0.150612  -0.000293
    92  H    0.144178  -0.000529
    93  H    0.152799   0.003563
    94  H    0.148066   0.000116
    95  H    0.122475  -0.000446
    96  H    0.155767  -0.000281
    97  H    0.383888   0.000980
    98  H    0.122987  -0.001027
    99  H    0.129770   0.000326
   100  H    0.119565   0.003734
   101  H    0.128829  -0.000083
   102  H    0.154052   0.000040
   103  H    0.124784   0.000055
 Sum of Mulliken charges =  -0.00000   4.00000

 Dipole moment (field-independent basis, Debye):
    X=              1.3301    Y=              5.5426    Z=              6.3440  Tot=              8.5285
 Quadrupole moment (field-independent basis, Debye-Ang):
   XX=           -304.9238   YY=           -310.9024   ZZ=           -282.7606
   XY=            -30.3670   XZ=            -15.6472   YZ=             -2.1515

 Normal termination of Gaussian 16 at Thu Dec 29 19:34:59 2022.
