 Gaussian 16, Revision A.03,
 Gaussian 16:  ES64L-G16RevA.03 25-Dec-2016

 ----------------------------------------------------------------------
 # PBE1PBE/def2TZVP scf=maxcycle=999 empiricaldispersion=GD3BJ geom=che
 ck pop=nbo
 ----------------------------------------------------------------------

 ----------
 1cry_III_H
 ----------
 Structure from the checkpoint file:  "1cry_III_H.chk"
 Charge =  1 Multiplicity = 6

                         Standard orientation:
 ---------------------------------------------------------------------
 Center     Atomic      Atomic             Coordinates (Angstroms)
 Number     Number       Type             X           Y           Z
 ---------------------------------------------------------------------
      1          6           0        2.508484   -1.500272    4.973537
      2          6           0        1.730312   -1.104455    3.784603
      3          7           0        0.376573   -1.253928    3.687894
      4          6           0        2.089705   -0.580736    2.600872
      5          6           0       -0.055828   -0.831832    2.524567
      6          7           0        0.978015   -0.412111    1.843546
      7          6           0       -0.716279    3.046624   -2.668771
      8          6           0        0.562144    2.328581   -2.904054
      9         16           0        0.445406    0.661489   -2.146629
     10          6           0        1.427062   -0.284806   -3.317838
     11         26           0        0.876349   -0.093247   -0.001944
     12          6           0       -2.512300   -0.003416    0.034222
     13          6           0        0.779031   -3.425162   -0.689223
     14          6           0        4.257602   -0.067235   -0.612602
     15          6           0        0.991796    3.132095    1.065518
     16          7           0       -0.578127   -1.464092   -0.258625
     17          6           0       -1.940039   -1.229948   -0.247969
     18          6           0       -2.643792   -2.436396   -0.586990
     19          6           0       -1.733325   -3.394129   -0.786043
     20          6           0       -0.436158   -2.798140   -0.586676
     21          6           0       -1.976408   -4.881460   -1.149380
     22          6           0       -4.196557   -2.561188   -0.603618
     23          6           0       -4.649887   -3.362070    0.644156
     24          6           0       -6.109472   -3.620695    0.833856
     25          8           0       -6.821269   -3.435270   -0.194234
     26          8           0       -6.494473   -3.990472    1.988322
     27          7           0        2.238628   -1.434957   -0.646420
     28          6           0        2.013015   -2.805946   -0.684939
     29          6           0        3.276597   -3.498166   -0.740963
     30          6           0        4.233452   -2.573120   -0.746795
     31          6           0        3.608856   -1.274430   -0.686484
     32          6           0        3.381730   -5.038307   -0.807339
     33          6           0        5.776154   -2.835314   -0.820620
     34          6           0        6.231248   -3.046066   -2.097514
     35          7           0        2.337045    1.250590    0.211001
     36          6           0        3.673797    1.063261   -0.064988
     37          6           0        4.378238    2.291862    0.248563
     38          6           0        3.481013    3.178200    0.676564
     39          6           0        2.189273    2.545370    0.682670
     40          6           0        5.901408    2.499531    0.045551
     41          6           0        3.754788    4.647349    1.155890
     42          6           0        3.873093    5.576407    0.166877
     43          7           0       -0.498389    1.295150    0.507306
     44          6           0       -0.274824    2.627649    0.843967
     45          6           0       -1.539937    3.323260    0.897952
     46          6           0       -2.509574    2.449285    0.615634
     47          6           0       -1.869029    1.178571    0.363212
     48          6           0       -1.695203    4.819050    1.235815
     49          6           0       -4.041387    2.636259    0.548715
     50          6           0       -4.708314    2.807495   -0.811968
     51          6           0       -6.097624    3.396124   -0.882576
     52          8           0       -6.419073    3.921893   -1.977235
     53          8           0       -6.828310    3.315588    0.139882
     54          1           0        0.816620   -0.564402   -4.150957
     55          1           0        2.246535    0.311841   -3.660439
     56          1           0        1.802396   -1.165174   -2.839322
     57          1           0       -1.503691    2.336044   -2.527491
     58          1           0       -0.626483    3.657886   -1.795161
     59          1           0       -0.939800    3.663308   -3.514135
     60          1           0        0.733478    2.234478   -3.956046
     61          1           0        1.367574    2.871787   -2.455600
     62          1           0        2.516320   -2.567080    5.055750
     63          1           0        3.512377   -1.142521    4.878078
     64          1           0        2.061239   -1.078338    5.849233
     65          1           0        3.088560   -0.336922    2.304656
     66          1           0       -0.205782   -1.633703    4.406666
     67          1           0       -1.072842   -0.831009    2.192030
     68          1           0       -7.529161   -4.048535   -0.404933
     69          1           0       -4.155473   -4.310562    0.615565
     70          1           0       -4.300484   -2.837135    1.508598
     71          1           0       -4.505643   -3.073800   -1.490520
     72          1           0       -4.634992   -1.585373   -0.582169
     73          1           0       -7.141445    3.554986   -2.492170
     74          1           0       -4.068531    3.426316   -1.405801
     75          1           0       -4.746273    1.842618   -1.272914
     76          1           0       -4.488463    1.785718    1.019463
     77          1           0       -4.284543    3.497706    1.134960
     78          1           0       -3.580733    0.037849   -0.006381
     79          1           0       -2.711711   -4.943759   -1.924202
     80          1           0       -1.061507   -5.319568   -1.489848
     81          1           0       -2.323784   -5.407629   -0.284871
     82          1           0       -2.698153    5.010159    1.555922
     83          1           0       -1.014868    5.080224    2.019289
     84          1           0       -1.480376    5.405164    0.366781
     85          1           0        1.055668    4.066524    1.582879
     86          1           0        2.922857    6.037254   -0.005089
     87          1           0        4.582888    6.321361    0.460366
     88          1           0        4.206469    5.100435   -0.731572
     89          1           0        3.842708    4.902340    2.191337
     90          1           0        6.159523    2.277792   -0.968899
     91          1           0        6.155082    3.515778    0.264161
     92          1           0        6.440685    1.848323    0.701302
     93          1           0        5.254989    0.003540   -0.993537
     94          1           0        7.224186   -3.443131   -2.061279
     95          1           0        5.587371   -3.740519   -2.595568
     96          1           0        6.237144   -2.118927   -2.631628
     97          1           0        6.412037   -2.848696    0.039830
     98          1           0        2.781312   -5.402323   -1.614736
     99          1           0        4.401758   -5.319652   -0.966364
    100          1           0        3.034924   -5.459477    0.113118
    101          1           0        0.770093   -4.491191   -0.780891
 ---------------------------------------------------------------------

 SCF Done:  E(UPBE1PBE) =  -3880.33798274     A.U. after   45 cycles

 Alpha virt. eigenvalues --    0.94835   0.94883   0.95034   0.95571   0.95649
 Alpha virt. eigenvalues --    0.96059   0.96430   0.96476   0.96609   0.96956
 Alpha virt. eigenvalues --    0.97257   0.97425   0.97947   0.98124   0.98524

  Beta  occ. eigenvalues -- -256.50629 -89.11467 -30.25341 -26.08920 -26.08374
  Beta  occ. eigenvalues --  -26.07559 -19.33940 -19.33017 -19.25301 -19.25041
  Beta  occ. eigenvalues --  -14.54949 -14.49005 -14.48901 -14.48862 -14.48752
  Beta  occ. eigenvalues --  -14.48122 -10.42824 -10.42770 -10.38658 -10.35865
  Beta  occ. eigenvalues --  -10.35600 -10.35511 -10.35502 -10.35446 -10.35409
  Beta  occ. eigenvalues --  -10.35393 -10.35281 -10.35260 -10.33620 -10.33553
  Beta  occ. eigenvalues --  -10.32587 -10.32396 -10.32389 -10.32335 -10.32334
  Beta  occ. eigenvalues --  -10.32331 -10.32270 -10.32253 -10.32229 -10.32150
  Beta  occ. eigenvalues --  -10.32140 -10.32096 -10.32025 -10.31838 -10.31602
  Beta  occ. eigenvalues --  -10.30856 -10.30844 -10.30765 -10.30692 -10.30200
  Beta  occ. eigenvalues --  -10.30122 -10.30010 -10.30000 -10.29936 -10.28807
  Beta  occ. eigenvalues --  -10.27954 -10.27802  -8.09514  -6.03168  -6.02871
  Beta  occ. eigenvalues --   -6.02273  -3.56157  -2.32672  -2.31592  -2.28528
  Beta  occ. eigenvalues --   -1.23581  -1.23508  -1.18268  -1.09449  -1.08911
  Beta  occ. eigenvalues --   -1.08798  -1.08006  -1.07631  -1.06752  -1.02421
  Beta  occ. eigenvalues --   -0.94224  -0.93477  -0.92854  -0.92395  -0.92073
  Beta  occ. eigenvalues --   -0.91871  -0.91521  -0.91296  -0.91076  -0.88439
  Beta  occ. eigenvalues --   -0.87988  -0.87343  -0.86993  -0.86455  -0.86146
  Beta  occ. eigenvalues --   -0.83986  -0.83040  -0.81982  -0.81462  -0.80908
  Beta  occ. eigenvalues --   -0.79256  -0.78577  -0.78287  -0.76194  -0.76022
  Beta  occ. eigenvalues --   -0.75901  -0.75652  -0.73743  -0.73108  -0.72858
  Beta  occ. eigenvalues --   -0.70469  -0.70095  -0.69439  -0.69240  -0.68507
  Beta  occ. eigenvalues --   -0.67722  -0.65698  -0.64662  -0.64271  -0.63493
  Beta  occ. eigenvalues --   -0.62409  -0.62256  -0.61606  -0.59875  -0.59845
  Beta  occ. eigenvalues --   -0.59150  -0.59097  -0.59004  -0.58776  -0.58589
  Beta  occ. eigenvalues --   -0.58378  -0.58002  -0.57877  -0.57195  -0.56587
  Beta  occ. eigenvalues --   -0.55978  -0.55800  -0.55434  -0.54998  -0.54830
  Beta  occ. eigenvalues --   -0.54559  -0.54223  -0.53908  -0.53811  -0.53630
  Beta  occ. eigenvalues --   -0.53502  -0.53441  -0.53174  -0.53018  -0.52832
  Beta  occ. eigenvalues --   -0.52757  -0.52532  -0.52095  -0.51859  -0.51649
  Beta  occ. eigenvalues --   -0.51567  -0.51083  -0.50988  -0.50776  -0.50597
  Beta  occ. eigenvalues --   -0.50130  -0.49921  -0.49652  -0.49424  -0.49174
  Beta  occ. eigenvalues --   -0.48980  -0.48597  -0.48491  -0.48325  -0.47935
  Beta  occ. eigenvalues --   -0.47799  -0.47386  -0.47161  -0.46907  -0.46827
  Beta  occ. eigenvalues --   -0.46604  -0.46445  -0.46326  -0.45953  -0.45291
  Beta  occ. eigenvalues --   -0.45032  -0.44390  -0.44076  -0.43700  -0.43606
  Beta  occ. eigenvalues --   -0.43346  -0.43035  -0.42911  -0.42612  -0.42490
  Beta  occ. eigenvalues --   -0.42162  -0.41013  -0.40283  -0.39302  -0.38585
  Beta  occ. eigenvalues --   -0.38371  -0.36726  -0.36384  -0.35767  -0.35156
  Beta  occ. eigenvalues --   -0.34893  -0.34821  -0.34183  -0.33708  -0.33201
  Beta  occ. eigenvalues --   -0.29831  -0.29283
  Beta virt. eigenvalues --   -0.19226  -0.19105  -0.15419  -0.15262  -0.12296
  Beta virt. eigenvalues --   -0.12157  -0.11119  -0.10755  -0.09311  -0.08322
  Beta virt. eigenvalues --   -0.07755  -0.07474  -0.06598  -0.06166  -0.05220

 Mulliken charges and spin densities:
               1          2
     1  C   -0.370090   0.001689
     2  C    0.175299   0.004557
     3  N   -0.199939   0.008649
     4  C   -0.226179   0.007408
     5  C    0.026041   0.023212
     6  N    0.067144   0.068522
     7  C   -0.369003  -0.000816
     8  C   -0.179365   0.018978
     9  S    0.016120   0.085537
    10  C   -0.384542   0.000781
    11  Fe  -0.325487   2.868181
    12  C   -0.513802  -0.010458
    13  C   -0.506082  -0.009932
    14  C   -0.443878  -0.003715
    15  C   -0.445514   0.000430
    16  N    0.030694  -0.069964
    17  C    0.280502   0.010235
    18  C    0.002800   0.009539
    19  C   -0.085195   0.008092
    20  C    0.297140   0.010392
    21  C   -0.390015  -0.000884
    22  C   -0.287210  -0.001269
    23  C   -0.188924   0.000420
    24  C    0.278877   0.000070
    25  O   -0.335273   0.000002
    26  O   -0.361023   0.000078
    27  N   -0.114437  -0.049173
    28  C    0.280362   0.014388
    29  C   -0.061519   0.036137
    30  C    0.070708  -0.073098
    31  C    0.172661   0.025576
    32  C   -0.386604  -0.001109
    33  C   -0.312758   1.021441
    34  C   -0.316234  -0.074909
    35  N    0.099672  -0.062592
    36  C    0.173878   0.013020
    37  C    0.037691   0.045821
    38  C   -0.007530  -0.081718
    39  C    0.142689   0.035698
    40  C   -0.390617  -0.001117
    41  C   -0.275857   0.998180
    42  C   -0.325368  -0.071149
    43  N    0.044470  -0.028219
    44  C    0.244257   0.017114
    45  C   -0.054167   0.003778
    46  C    0.045382   0.011502
    47  C    0.277949   0.012822
    48  C   -0.385027  -0.000174
    49  C   -0.318877  -0.000830
    50  C   -0.223850   0.000517
    51  C    0.287913   0.000004
    52  O   -0.341600   0.000026
    53  O   -0.340836   0.000026
    54  H    0.163656   0.002436
    55  H    0.152838   0.000512
    56  H    0.162460   0.000354
    57  H    0.132747   0.000364
    58  H    0.117398   0.000074
    59  H    0.143744   0.000482
    60  H    0.152918   0.004507
    61  H    0.133717   0.001094
    62  H    0.154269   0.000201
    63  H    0.151764   0.000022
    64  H    0.148527   0.000154
    65  H    0.152126   0.001209
    66  H    0.245555   0.001957
    67  H    0.207667   0.000308
    68  H    0.356438   0.000008
    69  H    0.128058  -0.000013
    70  H    0.130470   0.000001
    71  H    0.129356   0.000155
    72  H    0.119058  -0.000025
    73  H    0.362663  -0.000000
    74  H    0.133202  -0.000006
    75  H    0.121320  -0.000012
    76  H    0.132240   0.000273
    77  H    0.137294   0.000086
    78  H    0.113888  -0.000035
    79  H    0.151542   0.000095
    80  H    0.135535  -0.000002
    81  H    0.154584   0.000493
    82  H    0.145797  -0.000019
    83  H    0.140914   0.000156
    84  H    0.152294   0.000375
    85  H    0.144232   0.003869
    86  H    0.136101   0.086337
    87  H    0.137789   0.024240
    88  H    0.136804   0.017799
    89  H    0.151363  -0.048978
    90  H    0.140499   0.000557
    91  H    0.155667   0.000156
    92  H    0.152196   0.001119
    93  H    0.146936  -0.000967
    94  H    0.133899   0.004015
    95  H    0.136401   0.047201
    96  H    0.131869   0.078148
    97  H    0.156891  -0.052071
    98  H    0.144735   0.000389
    99  H    0.155706   0.000228
   100  H    0.151107   0.000770
   101  H    0.138318   0.000296
 Sum of Mulliken charges =   1.00000   5.00000

 Dipole moment (field-independent basis, Debye):
    X=              5.7577    Y=             -1.9662    Z=             -2.3084  Tot=              6.5074
 Quadrupole moment (field-independent basis, Debye-Ang):
   XX=           -259.0323   YY=           -259.3540   ZZ=           -275.3050
   XY=              9.0686   XZ=             41.2397   YZ=              0.2895

 Summary of Natural Population Analysis:

                                       Natural Population
                Natural  -----------------------------------------------
    Atom  No    Charge         Core      Valence    Rydberg      Total
 -----------------------------------------------------------------------
      C    1   -0.32114      0.99969     2.31541    0.00604     3.32114
      C    2    0.06066      0.99953     1.93097    0.00883     2.93934
      N    3   -0.22413      0.99967     2.71470    0.00977     3.72413
      C    4   -0.02338      0.99940     2.01470    0.00928     3.02338
      C    5    0.12871      0.99961     1.86129    0.01039     2.87129
      N    6   -0.14347      0.99962     2.62358    0.02028     3.64347
      C    7   -0.31393      0.99972     2.30815    0.00606     3.31393
      C    8   -0.24011      0.99963     2.23148    0.00900     3.24011
      S    9    0.32212      4.99917     2.65938    0.01933     7.67788
      C   10   -0.36900      0.99964     2.36058    0.00879     3.36900
     Fe   11    1.45057      8.99447     2.52525    0.02971    11.54943
      C   12   -0.12258      0.99948     2.11449    0.00861     3.12258
      C   13   -0.11884      0.99947     2.11100    0.00837     3.11884
      C   14   -0.12291      0.99946     2.11486    0.00859     3.12291
      C   15   -0.11580      0.99948     2.10802    0.00830     3.11580
      N   16   -0.21790      0.99969     2.69545    0.02276     3.71790
      C   17    0.08037      0.99950     1.90942    0.01072     2.91963
      C   18   -0.00476      0.99935     1.99571    0.00969     3.00476
      C   19    0.00158      0.99930     1.99064    0.00848     2.99842
      C   20    0.08197      0.99950     1.90751    0.01101     2.91803
      C   21   -0.31848      0.99970     2.31526    0.00352     3.31848
      C   22   -0.20841      0.99968     2.20236    0.00638     3.20841
      C   23   -0.25093      0.99961     2.24276    0.00855     3.25093
      C   24    0.38007      0.99972     1.60310    0.01710     2.61993
      O   25   -0.33061      0.99982     3.31741    0.01338     4.33061
      O   26   -0.28965      0.99990     3.27853    0.01122     4.28965
      N   27   -0.21976      0.99970     2.69707    0.02299     3.71976
      C   28    0.08181      0.99950     1.90786    0.01083     2.91819
      C   29    0.01581      0.99934     1.97655    0.00830     2.98419
      C   30   -0.05948      0.99933     2.04975    0.01041     3.05948
      C   31    0.10133      0.99949     1.88872    0.01045     2.89867
      C   32   -0.31990      0.99970     2.31673    0.00347     3.31990
      C   33    0.42715      0.99960     1.56583    0.00742     2.57285
      C   34   -0.36874      0.99965     2.36165    0.00744     3.36874
      N   35   -0.20974      0.99968     2.68680    0.02326     3.70974
      C   36    0.08329      0.99951     1.90655    0.01065     2.91671
      C   37    0.01754      0.99934     1.97511    0.00801     2.98246
      C   38   -0.06157      0.99932     2.05167    0.01057     3.06157
      C   39    0.10145      0.99949     1.88858    0.01048     2.89855
      C   40   -0.31873      0.99969     2.31558    0.00346     3.31873
      C   41    0.42405      0.99958     1.56878    0.00759     2.57595
      C   42   -0.37022      0.99964     2.36298    0.00760     3.37022
      N   43   -0.20031      0.99970     2.67637    0.02424     3.70031
      C   44    0.08636      0.99951     1.90323    0.01090     2.91364
      C   45   -0.00253      0.99936     1.99459    0.00858     3.00253
      C   46   -0.00216      0.99935     1.99336    0.00945     3.00216
      C   47    0.08371      0.99951     1.90635    0.01043     2.91629
      C   48   -0.31722      0.99970     2.31403    0.00350     3.31722
      C   49   -0.21173      0.99965     2.20492    0.00715     3.21173
      C   50   -0.25278      0.99960     2.24487    0.00831     3.25278
      C   51    0.38392      0.99974     1.59889    0.01745     2.61608
      O   52   -0.33553      0.99980     3.32149    0.01423     4.33553
      O   53   -0.28507      0.99990     3.27365    0.01152     4.28507
      H   54    0.11488      0.00000     0.38459    0.00053     0.38512
      H   55    0.11367      0.00000     0.38568    0.00065     0.38633
      H   56    0.12574      0.00000     0.37373    0.00053     0.37426
      H   57    0.11054      0.00000     0.38830    0.00116     0.38946
      H   58    0.10784      0.00000     0.39133    0.00083     0.39216
      H   59    0.11297      0.00000     0.38647    0.00055     0.38703
      H   60    0.11697      0.00000     0.38236    0.00068     0.38303
      H   61    0.11142      0.00000     0.38758    0.00100     0.38858
      H   62    0.11624      0.00000     0.38311    0.00065     0.38376
      H   63    0.12135      0.00000     0.37825    0.00040     0.37865
      H   64    0.11531      0.00000     0.38407    0.00062     0.38469
      H   65    0.11759      0.00000     0.38166    0.00075     0.38241
      H   66    0.21225      0.00000     0.28698    0.00077     0.28775
      H   67    0.11910      0.00000     0.37995    0.00095     0.38090
      H   68    0.25999      0.00000     0.23877    0.00123     0.24001
      H   69    0.11919      0.00000     0.38013    0.00068     0.38081
      H   70    0.11761      0.00000     0.38174    0.00066     0.38239
      H   71    0.11442      0.00000     0.38475    0.00083     0.38558
      H   72    0.10773      0.00000     0.39158    0.00068     0.39227
      H   73    0.26140      0.00000     0.23745    0.00116     0.23860
      H   74    0.11300      0.00000     0.38629    0.00070     0.38700
      H   75    0.11454      0.00000     0.38481    0.00064     0.38546
      H   76    0.11185      0.00000     0.38718    0.00096     0.38815
      H   77    0.11836      0.00000     0.38085    0.00079     0.38164
      H   78    0.11181      0.00000     0.38682    0.00137     0.38819
      H   79    0.11507      0.00000     0.38421    0.00072     0.38493
      H   80    0.11141      0.00000     0.38800    0.00059     0.38859
      H   81    0.11336      0.00000     0.38587    0.00077     0.38664
      H   82    0.11504      0.00000     0.38424    0.00072     0.38496
      H   83    0.11187      0.00000     0.38753    0.00060     0.38813
      H   84    0.11393      0.00000     0.38538    0.00069     0.38607
      H   85    0.11747      0.00000     0.38146    0.00107     0.38253
      H   86    0.15636      0.00000     0.34314    0.00050     0.34364
      H   87    0.12841      0.00000     0.37107    0.00053     0.37159
      H   88    0.11992      0.00000     0.37945    0.00063     0.38008
      H   89    0.08379      0.00000     0.41544    0.00077     0.41621
      H   90    0.11173      0.00000     0.38762    0.00064     0.38827
      H   91    0.11595      0.00000     0.38344    0.00061     0.38405
      H   92    0.11486      0.00000     0.38447    0.00067     0.38514
      H   93    0.11954      0.00000     0.37937    0.00110     0.38046
      H   94    0.11696      0.00000     0.38249    0.00055     0.38304
      H   95    0.13455      0.00000     0.36488    0.00058     0.36545
      H   96    0.14958      0.00000     0.34992    0.00050     0.35042
      H   97    0.08518      0.00000     0.41408    0.00074     0.41482
      H   98    0.11283      0.00000     0.38650    0.00067     0.38717
      H   99    0.11624      0.00000     0.38314    0.00062     0.38376
      H  100    0.11471      0.00000     0.38460    0.00069     0.38529
      H  101    0.11450      0.00000     0.38424    0.00126     0.38550
 =======================================================================
   * Total *    3.00000     64.97220   136.40894    0.61885   202.00000

 Normal termination of Gaussian 16 at Sat Feb 25 10:27:10 2023.
