 Gaussian 16, Revision A.03,

 ----------------------------------------------------------------------
 # PBE1PBE/def2TZVP empiricaldispersion=GD3BJ int=(grid=ultrafine) geom
 =check pop=nbo
 ----------------------------------------------------------------------

 ----------
 1ccg_III_D
 ----------
 Structure from the checkpoint file:  "1ccg_III_D.chk"
 Charge =  1 Multiplicity = 2

 SCF Done:  E(UPBE1PBE) =  -3398.95775957     A.U. after   77 cycles

 Summary of Natural Population Analysis:

                                       Natural Population
                Natural  -----------------------------------------------
    Atom  No    Charge         Core      Valence    Rydberg      Total
 -----------------------------------------------------------------------
      C    1   -0.10401      0.99955     2.09624    0.00822     3.10401
      C    2   -0.09744      0.99954     2.09017    0.00773     3.09744
      C    3   -0.09293      0.99954     2.08546    0.00793     3.09293
      C    4   -0.09985      0.99954     2.09273    0.00758     3.09985
      C    5    0.06383      0.99945     1.92649    0.01023     2.93617
      C    6    0.00661      0.99944     1.98467    0.00928     2.99339
      C    7    0.00102      0.99945     1.99162    0.00792     2.99898
      C    8    0.06939      0.99947     1.92029    0.01085     2.93061
      C    9   -0.31768      0.99970     2.31431    0.00367     3.31768
      C   10   -0.21157      0.99966     2.20493    0.00698     3.21157
      C   11   -0.24417      0.99963     2.23598    0.00856     3.24417
      C   12    0.37899      0.99978     1.60156    0.01966     2.62101
      O   13   -0.33585      0.99978     3.32138    0.01469     4.33585
      O   14   -0.28632      0.99989     3.27353    0.01290     4.28632
      C   15    0.07092      0.99949     1.91878    0.01081     2.92908
      C   16    0.00714      0.99945     1.98507    0.00834     2.99286
      C   17   -0.04344      0.99945     2.03425    0.00974     3.04344
      C   18    0.08132      0.99951     1.90869    0.01048     2.91868
      C   19   -0.31765      0.99970     2.31425    0.00370     3.31765
      C   20   -0.10870      0.99964     2.10202    0.00704     3.10870
      C   21   -0.15868      0.99973     2.15352    0.00543     3.15868
      C   22    0.05504      0.99943     1.93485    0.01068     2.94496
      C   23    0.04786      0.99925     1.94197    0.01093     2.95214
      C   24   -0.07348      0.99943     2.06436    0.00970     3.07348
      C   25    0.08665      0.99950     1.90292    0.01092     2.91335
      C   26   -0.60859      0.99954     2.57917    0.02988     3.60859
      C   27   -0.10194      0.99964     2.09533    0.00697     3.10194
      C   28   -0.17879      0.99972     2.17330    0.00577     3.17879
      C   29    0.06354      0.99946     1.92576    0.01124     2.93646
      C   30   -0.00484      0.99942     1.99732    0.00810     3.00484
      C   31    0.00624      0.99945     1.98496    0.00935     2.99376
      C   32    0.06601      0.99948     1.92404    0.01047     2.93399
      C   33   -0.31732      0.99970     2.31389    0.00373     3.31732
      C   34   -0.21472      0.99968     2.20785    0.00719     3.21472
      C   35   -0.24964      0.99963     2.24121    0.00880     3.24964
      C   36    0.37836      0.99975     1.60267    0.01922     2.62164
      O   37   -0.27032      0.99988     3.25774    0.01270     4.27032
      O   38   -0.34139      0.99977     3.32634    0.01527     4.34139
      N   39   -0.21057      0.99963     2.68626    0.02468     3.71057
      N   40   -0.20945      0.99963     2.68472    0.02510     3.70945
      N   41   -0.20387      0.99964     2.68043    0.02380     3.70387
      N   42   -0.22369      0.99962     2.69937    0.02470     3.72369
     Fe   43    0.76464      8.99616     3.21756    0.02164    12.23536
      N   44   -0.21600      0.99966     2.70580    0.01054     3.71600
      C   45    0.10723      0.99966     1.88320    0.00991     2.89277
      N   46   -0.19108      0.99963     2.66855    0.02291     3.69108
      C   47   -0.01998      0.99959     2.00955    0.01084     3.01998
      C   48   -0.04220      0.99963     2.03365    0.00892     3.04220
      H   49    0.21274      0.00000     0.28649    0.00078     0.28726
      O   50   -0.39692      0.99990     3.38666    0.01036     4.39692
      H   51    0.10775      0.00000     0.39072    0.00153     0.39225
      H   52    0.10843      0.00000     0.39008    0.00149     0.39157
      H   53    0.11975      0.00000     0.37893    0.00132     0.38025
      H   54    0.10889      0.00000     0.38988    0.00123     0.39111
      H   55    0.11089      0.00000     0.38852    0.00058     0.38911
      H   56    0.11644      0.00000     0.38284    0.00072     0.38356
      H   57    0.11447      0.00000     0.38479    0.00074     0.38553
      H   58    0.10992      0.00000     0.38908    0.00100     0.39008
      H   59    0.11656      0.00000     0.38252    0.00092     0.38344
      H   60    0.11140      0.00000     0.38764    0.00096     0.38860
      H   61    0.11873      0.00000     0.38041    0.00086     0.38127
      H   62    0.11855      0.00000     0.38064    0.00081     0.38145
      H   63    0.11488      0.00000     0.38424    0.00088     0.38512
      H   64    0.10883      0.00000     0.39057    0.00061     0.39117
      H   65    0.10369      0.00000     0.39539    0.00092     0.39631
      H   66    0.09562      0.00000     0.40354    0.00084     0.40438
      H   67    0.10516      0.00000     0.39424    0.00060     0.39484
      H   68    0.20185      0.00000     0.29739    0.00077     0.29815
      H   69    0.21309      0.00000     0.28476    0.00215     0.28691
      H   70    0.21284      0.00000     0.28601    0.00115     0.28716
      H   71    0.10325      0.00000     0.39580    0.00095     0.39675
      H   72    0.09102      0.00000     0.40774    0.00124     0.40898
      H   73    0.10703      0.00000     0.39234    0.00063     0.39297
      H   74    0.11419      0.00000     0.38509    0.00072     0.38581
      H   75    0.11633      0.00000     0.38295    0.00073     0.38367
      H   76    0.11114      0.00000     0.38830    0.00057     0.38886
      H   77    0.11392      0.00000     0.38516    0.00092     0.38608
      H   78    0.11159      0.00000     0.38745    0.00096     0.38841
      H   79    0.11819      0.00000     0.38094    0.00087     0.38181
      H   80    0.11510      0.00000     0.38408    0.00082     0.38490
      H   81    0.11918      0.00000     0.37991    0.00090     0.38082
      H   82    0.11932      0.00000     0.37995    0.00073     0.38068
      H   83    0.12176      0.00000     0.37769    0.00055     0.37824
      H   84    0.26092      0.00000     0.23799    0.00109     0.23908
      H   85    0.26188      0.00000     0.23676    0.00136     0.23812
      H   86    0.26172      0.00000     0.23706    0.00123     0.23828
      H   87    0.26127      0.00000     0.23754    0.00119     0.23873
 =======================================================================
   * Total *    1.00000     56.97685   125.41077    0.61238   183.00000

 Normal termination of Gaussian 16 at Sat Sep 17 17:51:13 2022.
 Gaussian 16:  ES64L-G16RevA.03 25-Dec-2016

 ----------------------------------------------------------------------
 # PBE1PBE/def2TZVP empiricaldispersion=GD3BJ int=(grid=ultrafine) geom
 =check guess=read scrf=(smd,solvent=Chloroform)
 ----------------------------------------------------------------------

 ---------------
 1ccg_III_D_solv
 ---------------
 Structure from the checkpoint file:  "1ccg_III_D.chk"
 Charge =  1 Multiplicity = 2

                         Standard orientation:
 ---------------------------------------------------------------------
 Center     Atomic      Atomic             Coordinates (Angstroms)
 Number     Number       Type             X           Y           Z
 ---------------------------------------------------------------------
      1          6           0       -2.341147   -0.087175    0.262138
      2          6           0        0.995264   -3.454204   -0.237578
      3          6           0        4.282185   -0.048016   -0.646326
      4          6           0        0.880258    3.318637   -0.398269
      5          6           0       -1.739433   -1.335050    0.166899
      6          6           0       -2.438089   -2.529722    0.156800
      7          6           0       -1.460638   -3.540642    0.036331
      8          6           0       -0.253692   -2.860163   -0.068963
      9          6           0       -1.671537   -5.060417    0.072694
     10          6           0       -3.964882   -2.642523    0.252103
     11          6           0       -4.716174   -2.701943   -1.043627
     12          6           0       -6.240043   -2.788572   -0.864662
     13          8           0       -6.753382   -3.808122   -0.399679
     14          8           0       -6.965770   -1.850150   -1.195826
     15          6           0        2.242116   -2.822105   -0.302203
     16          6           0        3.460591   -3.503376   -0.345264
     17          6           0        4.422473   -2.503552   -0.389279
     18          6           0        3.711319   -1.300676   -0.442255
     19          6           0        3.589811   -5.017051   -0.203352
     20          6           0        5.826668   -2.547984   -0.353391
     21          6           0        6.688241   -3.688815   -0.192611
     22          6           0        3.655693    1.203852   -0.694268
     23          6           0        4.309907    2.399294   -0.985190
     24          6           0        3.276689    3.357698   -0.976926
     25          6           0        2.117318    2.687864   -0.616413
     26          6           0        5.810632    2.552230   -1.345141
     27          6           0        3.268335    4.743920   -1.202791
     28          6           0        4.379370    5.643972   -1.278697
     29          6           0       -0.336058    2.734044   -0.104899
     30          6           0       -1.495196    3.413133    0.211575
     31          6           0       -2.441354    2.395890    0.381751
     32          6           0       -1.777510    1.194879    0.181837
     33          6           0       -1.669620    4.913025    0.468814
     34          6           0       -3.898665    2.565334    0.794718
     35          6           0       -4.837188    2.634942   -0.396513
     36          6           0       -6.308954    2.666210   -0.062378
     37          8           0       -7.093116    2.218160   -0.891441
     38          8           0       -6.690412    3.138002    1.006424
     39          7           0       -0.424535   -1.539306    0.027156
     40          7           0        2.404121   -1.502698   -0.273888
     41          7           0        2.336094    1.381642   -0.480508
     42          7           0       -0.507987    1.413529   -0.078889
     43         26           0        0.959964   -0.045150   -0.000976
     44          7           0        2.280541   -0.306056    3.723406
     45          6           0        1.737098   -0.806619    2.654394
     46          7           0        1.259811    0.189171    1.959721
     47          6           0        1.499839    1.300357    2.584281
     48          6           0        2.171460    0.990545    3.751289
     49          1           0        2.780947   -0.819336    4.373207
     50          8           0        0.651998   -0.387767   -1.932913
     51          1           0       -3.399030   -0.106564    0.421534
     52          1           0        1.001868   -4.520318   -0.328448
     53          1           0        5.343079   -0.040119   -0.785404
     54          1           0        0.881058    4.386340   -0.468343
     55          1           0       -0.824353   -5.548564   -0.361923
     56          1           0       -1.785917   -5.380454    1.087284
     57          1           0       -2.551373   -5.311778   -0.481928
     58          1           0       -4.284954   -1.735671    0.721224
     59          1           0       -4.148069   -3.583896    0.726613
     60          1           0       -4.423065   -3.618794   -1.510930
     61          1           0       -4.530858   -1.768772   -1.533269
     62          1           0        3.941349   -5.432917   -1.124426
     63          1           0        4.284184   -5.243998    0.578466
     64          1           0        2.634516   -5.435739    0.035422
     65          1           0        6.322107   -1.605619   -0.460107
     66          1           0        6.266819   -4.665859   -0.079973
     67          1           0        7.750470   -3.560279   -0.185667
     68          1           0        6.492506    3.366680   -1.216231
     69          1           0        5.387840    3.251809   -2.035601
     70          1           0        5.879880    2.561583   -0.277425
     71          1           0        2.303197    5.186301   -1.335858
     72          1           0        5.376169    5.275014   -1.155558
     73          1           0        4.212819    6.685514   -1.458557
     74          1           0       -2.559535    5.256870   -0.015667
     75          1           0       -1.746436    5.087769    1.521650
     76          1           0       -0.824731    5.442179    0.080150
     77          1           0       -3.961501    3.517706    1.278390
     78          1           0       -4.161496    1.675911    1.328335
     79          1           0       -4.685522    1.721866   -0.933346
     80          1           0       -4.631324    3.573210   -0.867865
     81          1           0        1.689860   -1.843012    2.392559
     82          1           0        1.226705    2.281046    2.254818
     83          1           0        2.521993    1.663246    4.505942
     84          1           0        1.048135   -0.131521   -2.768983
     85          1           0       -0.208135    0.029447   -1.845145
     86          1           0       -7.489499   -4.224820   -0.853656
     87          1           0       -7.130146    3.991169    1.024820
 ---------------------------------------------------------------------

 SCF Done:  E(UPBE1PBE) =  -3399.07486376     A.U. after   50 cycles

 Alpha virt. eigenvalues --    0.60722   0.60911   0.61315   0.61447   0.61641
 Alpha virt. eigenvalues --    0.61909   0.62369   0.62629   0.62845   0.63085
 Alpha virt. eigenvalues --    0.63386   0.63597   0.63841   0.64431   0.64783

  Beta  occ. eigenvalues -- -256.45324 -30.21675 -26.04747 -26.04537 -26.03781
  Beta  occ. eigenvalues --  -19.27360 -19.26239 -19.25869 -19.18890 -19.18688
  Beta  occ. eigenvalues --  -14.47860 -14.44394 -14.41780 -14.41179 -14.41007
  Beta  occ. eigenvalues --  -14.40952 -10.35932 -10.35696 -10.31261 -10.30086
  Beta  occ. eigenvalues --  -10.28322 -10.28022 -10.27764 -10.27674 -10.27621
  Beta  occ. eigenvalues --  -10.27590 -10.27547 -10.27471 -10.27418 -10.26925
  Beta  occ. eigenvalues --  -10.25834 -10.25508 -10.25482 -10.25439 -10.25225
  Beta  occ. eigenvalues --  -10.25212 -10.25206 -10.25153 -10.25080 -10.25067
  Beta  occ. eigenvalues --  -10.24948 -10.24877 -10.24764 -10.24581 -10.24325
  Beta  occ. eigenvalues --  -10.24244 -10.23984 -10.23792 -10.23431 -10.23213
  Beta  occ. eigenvalues --  -10.23009 -10.22926 -10.21429  -3.54124  -2.29588
  Beta  occ. eigenvalues --   -2.29446  -2.28560  -1.18517  -1.18412  -1.13548
  Beta  occ. eigenvalues --   -1.11323  -1.04667  -1.04548  -1.03991  -1.03852
  Beta  occ. eigenvalues --   -1.03487  -1.02746  -0.97628  -0.87947  -0.87678
  Beta  occ. eigenvalues --   -0.86258  -0.86037  -0.85826  -0.85159  -0.84902
  Beta  occ. eigenvalues --   -0.82315  -0.82286  -0.81337  -0.80935  -0.79040
  Beta  occ. eigenvalues --   -0.78687  -0.76725  -0.76425  -0.74949  -0.74420
  Beta  occ. eigenvalues --   -0.73255  -0.71406  -0.71106  -0.70093  -0.70005
  Beta  occ. eigenvalues --   -0.69650  -0.67414  -0.67251  -0.66822  -0.65775
  Beta  occ. eigenvalues --   -0.64980  -0.63155  -0.63056  -0.62611  -0.62127
  Beta  occ. eigenvalues --   -0.59995  -0.58970  -0.58228  -0.57260  -0.56340
  Beta  occ. eigenvalues --   -0.55980  -0.55577  -0.53647  -0.53343  -0.52851
  Beta  occ. eigenvalues --   -0.52717  -0.52627  -0.52271  -0.52025  -0.51897
  Beta  occ. eigenvalues --   -0.51804  -0.51476  -0.51255  -0.50850  -0.50791
  Beta  occ. eigenvalues --   -0.49403  -0.48951  -0.48756  -0.48579  -0.48090
  Beta  occ. eigenvalues --   -0.47742  -0.47617  -0.47521  -0.47281  -0.47034
  Beta  occ. eigenvalues --   -0.46715  -0.45983  -0.45773  -0.45584  -0.44867
  Beta  occ. eigenvalues --   -0.44366  -0.44157  -0.44022  -0.43810  -0.43343
  Beta  occ. eigenvalues --   -0.43252  -0.43153  -0.42613  -0.41995  -0.41821
  Beta  occ. eigenvalues --   -0.41322  -0.41174  -0.40950  -0.40783  -0.40353
  Beta  occ. eigenvalues --   -0.40237  -0.39668  -0.39577  -0.39190  -0.39057
  Beta  occ. eigenvalues --   -0.38740  -0.38481  -0.38158  -0.37576  -0.36862
  Beta  occ. eigenvalues --   -0.36630  -0.36188  -0.36115  -0.35308  -0.35008
  Beta  occ. eigenvalues --   -0.34395  -0.34064  -0.33876  -0.33689  -0.32618
  Beta  occ. eigenvalues --   -0.31647  -0.31528  -0.30569  -0.29311  -0.28982
  Beta  occ. eigenvalues --   -0.28264  -0.27082  -0.26941  -0.26180  -0.24729
  Beta  occ. eigenvalues --   -0.23353  -0.22645  -0.22169
  Beta virt. eigenvalues --   -0.12767  -0.11401  -0.10139  -0.08097  -0.06801
  Beta virt. eigenvalues --   -0.06400  -0.03587  -0.02106  -0.01521  -0.01356
  Beta virt. eigenvalues --   -0.01044  -0.00496   0.00648   0.02154   0.02614

 Mulliken charges and spin densities:
               1          2
     1  C   -0.453125  -0.008712
     2  C   -0.520915  -0.008838
     3  C   -0.496032  -0.009121
     4  C   -0.546375  -0.001027
     5  C    0.287064   0.004696
     6  C    0.032147   0.012793
     7  C   -0.089867   0.000519
     8  C    0.334884   0.004900
     9  C   -0.425881  -0.000662
    10  C   -0.410601  -0.001235
    11  C   -0.114800   0.000623
    12  C    0.257989   0.000049
    13  O   -0.345929   0.000002
    14  O   -0.395907   0.000076
    15  C    0.296426   0.006815
    16  C   -0.113056  -0.005494
    17  C    0.022640   0.011366
    18  C    0.324541   0.003523
    19  C   -0.403964  -0.000294
    20  C   -0.205242  -0.011293
    21  C   -0.327330   0.018579
    22  C    0.256343   0.003862
    23  C   -0.185702   0.009088
    24  C    0.046160   0.000826
    25  C    0.274650   0.004295
    26  C   -0.739897   0.002782
    27  C   -0.177488  -0.002393
    28  C   -0.340671   0.003160
    29  C    0.320588   0.003158
    30  C   -0.128444  -0.003113
    31  C    0.047229   0.010388
    32  C    0.242435   0.004736
    33  C   -0.419468  -0.000355
    34  C   -0.321012  -0.000912
    35  C   -0.180617   0.000601
    36  C    0.257136   0.000084
    37  O   -0.368413   0.000113
    38  O   -0.356346  -0.000002
    39  N   -0.048318  -0.035845
    40  N   -0.068816  -0.037337
    41  N   -0.016475  -0.033975
    42  N   -0.158331  -0.029708
    43  Fe  -0.162178   1.132541
    44  N   -0.130257   0.001453
    45  C    0.032241   0.018722
    46  N    0.032411  -0.052754
    47  C   -0.138351   0.001515
    48  C   -0.090181   0.001760
    49  H    0.276647  -0.000275
    50  O   -0.480325  -0.019350
    51  H    0.141933   0.000030
    52  H    0.136765   0.000348
    53  H    0.181075   0.000312
    54  H    0.129933   0.000103
    55  H    0.152934  -0.000018
    56  H    0.164451   0.000073
    57  H    0.155419  -0.000014
    58  H    0.139756   0.000229
    59  H    0.141021   0.000149
    60  H    0.129425  -0.000010
    61  H    0.130514  -0.000031
    62  H    0.170565  -0.000204
    63  H    0.154400  -0.000161
    64  H    0.140313  -0.000061
    65  H    0.132778   0.000396
    66  H    0.161296  -0.000776
    67  H    0.172456  -0.000892
    68  H    0.297565  -0.000217
    69  H    0.272345  -0.000022
    70  H    0.284772   0.000229
    71  H    0.145436   0.000044
    72  H    0.148841  -0.000148
    73  H    0.170936  -0.000191
    74  H    0.154929  -0.000012
    75  H    0.164673  -0.000201
    76  H    0.150995  -0.000034
    77  H    0.127738   0.000032
    78  H    0.136937   0.000255
    79  H    0.131431  -0.000044
    80  H    0.141238  -0.000001
    81  H    0.216334  -0.000969
    82  H    0.188333  -0.000385
    83  H    0.199144  -0.000642
    84  H    0.386460   0.000890
    85  H    0.380386   0.001616
    86  H    0.391414  -0.000000
    87  H    0.393843  -0.000001
 Sum of Mulliken charges =   1.00000   1.00000

 Dipole moment (field-independent basis, Debye):
    X=              8.1026    Y=              0.9370    Z=              8.0460  Tot=             11.4572
 Quadrupole moment (field-independent basis, Debye-Ang):
   XX=           -274.3089   YY=           -181.5568   ZZ=           -255.1992
   XY=             12.9050   XZ=              9.1350   YZ=              5.4613

 Normal termination of Gaussian 16 at Sun Sep 18 11:44:41 2022.
