 Gaussian 16, Revision A.03,

 ----------------------------------------------------------------------
 # PBE1PBE/def2TZVP empiricaldispersion=GD3BJ int=(grid=ultrafine) geom
 =check pop=nbo guess=read
 ----------------------------------------------------------------------

 ---------
 1ccg_II_Q
 ---------
 Structure from the checkpoint file:  "1ccg_II_Q.chk"
 Charge =  0 Multiplicity = 5

 SCF Done:  E(UPBE1PBE) =  -3399.14841881     A.U. after    1 cycles

 Summary of Natural Population Analysis:

                                       Natural Population
                Natural  -----------------------------------------------
    Atom  No    Charge         Core      Valence    Rydberg      Total
 -----------------------------------------------------------------------
      C    1   -0.11106      0.99954     2.10335    0.00816     3.11106
      C    2   -0.09639      0.99954     2.08908    0.00777     3.09639
      C    3   -0.09823      0.99954     2.09060    0.00809     3.09823
      C    4   -0.10598      0.99953     2.09870    0.00774     3.10598
      C    5    0.06068      0.99946     1.92852    0.01135     2.93932
      C    6   -0.01663      0.99943     2.00785    0.00935     3.01663
      C    7   -0.00543      0.99944     1.99765    0.00834     3.00543
      C    8    0.05887      0.99947     1.93040    0.01127     2.94113
      C    9   -0.31709      0.99970     2.31372    0.00367     3.31709
      C   10   -0.20979      0.99966     2.20319    0.00694     3.20979
      C   11   -0.24505      0.99963     2.23691    0.00851     3.24505
      C   12    0.38035      0.99978     1.60007    0.01980     2.61965
      O   13   -0.33720      0.99978     3.32269    0.01473     4.33720
      O   14   -0.29271      0.99989     3.27991    0.01291     4.29271
      C   15    0.06291      0.99949     1.92728    0.01031     2.93709
      C   16    0.01060      0.99944     1.98132    0.00864     2.98940
      C   17   -0.06547      0.99945     2.05602    0.01000     3.06547
      C   18    0.08576      0.99951     1.90427    0.01045     2.91424
      C   19   -0.31764      0.99970     2.31420    0.00374     3.31764
      C   20   -0.08758      0.99965     2.08090    0.00704     3.08758
      C   21   -0.20763      0.99973     2.20191    0.00600     3.20763
      C   22    0.05109      0.99944     1.93727    0.01220     2.94891
      C   23    0.04180      0.99925     1.94803    0.01092     2.95820
      C   24   -0.08606      0.99942     2.07668    0.00995     3.08606
      C   25    0.07574      0.99950     1.91331    0.01145     2.92426
      C   26   -0.62099      0.99955     2.59071    0.03073     3.62099
      C   27   -0.08868      0.99964     2.08198    0.00706     3.08868
      C   28   -0.21240      0.99972     2.20634    0.00634     3.21240
      C   29    0.05610      0.99946     1.93365    0.01079     2.94390
      C   30   -0.00771      0.99941     1.99980    0.00850     3.00771
      C   31   -0.01647      0.99944     2.00757    0.00945     3.01647
      C   32    0.06887      0.99948     1.92120    0.01045     2.93113
      C   33   -0.31687      0.99970     2.31341    0.00376     3.31687
      C   34   -0.21279      0.99968     2.20579    0.00731     3.21279
      C   35   -0.25098      0.99964     2.24261    0.00874     3.25098
      C   36    0.38021      0.99975     1.60067    0.01937     2.61979
      O   37   -0.27811      0.99988     3.26554    0.01269     4.27811
      O   38   -0.34226      0.99977     3.32713    0.01536     4.34226
      N   39   -0.19733      0.99969     2.67331    0.02434     3.69733
      N   40   -0.19530      0.99969     2.67525    0.02035     3.69530
      N   41   -0.18967      0.99970     2.66710    0.02287     3.68967
      N   42   -0.21983      0.99968     2.69968    0.02047     3.71983
     Fe   43    2.12380      8.99577     1.85403    0.02640    10.87620
      N   44   -0.22270      0.99966     2.71234    0.01069     3.72270
      C   45    0.08549      0.99965     1.90225    0.01261     2.91451
      N   46   -0.18367      0.99967     2.66073    0.02326     3.68367
      C   47   -0.02284      0.99957     2.01221    0.01106     3.02284
      C   48   -0.05292      0.99962     2.04407    0.00923     3.05292
      H   49    0.20592      0.00000     0.29335    0.00073     0.29408
      O   50   -0.38641      0.99991     3.37658    0.00991     4.38641
      H   51    0.09991      0.00000     0.39873    0.00136     0.40009
      H   52    0.10068      0.00000     0.39780    0.00152     0.39932
      H   53    0.11335      0.00000     0.38531    0.00134     0.38665
      H   54    0.10153      0.00000     0.39721    0.00126     0.39847
      H   55    0.10860      0.00000     0.39078    0.00062     0.39140
      H   56    0.11078      0.00000     0.38842    0.00080     0.38922
      H   57    0.10859      0.00000     0.39060    0.00080     0.39141
      H   58    0.10885      0.00000     0.39013    0.00102     0.39115
      H   59    0.10996      0.00000     0.38880    0.00124     0.39004
      H   60    0.10967      0.00000     0.38934    0.00099     0.39033
      H   61    0.11975      0.00000     0.37939    0.00087     0.38025
      H   62    0.11297      0.00000     0.38612    0.00091     0.38703
      H   63    0.11059      0.00000     0.38845    0.00096     0.38941
      H   64    0.10719      0.00000     0.39216    0.00065     0.39281
      H   65    0.10110      0.00000     0.39793    0.00097     0.39890
      H   66    0.09372      0.00000     0.40540    0.00088     0.40628
      H   67    0.09993      0.00000     0.39944    0.00063     0.40007
      H   68    0.19435      0.00000     0.30482    0.00084     0.30565
      H   69    0.21188      0.00000     0.28586    0.00226     0.28812
      H   70    0.21103      0.00000     0.28776    0.00121     0.28897
      H   71    0.10029      0.00000     0.39867    0.00104     0.39971
      H   72    0.08946      0.00000     0.40922    0.00132     0.41054
      H   73    0.10105      0.00000     0.39828    0.00067     0.39895
      H   74    0.10813      0.00000     0.39109    0.00078     0.39187
      H   75    0.11126      0.00000     0.38793    0.00081     0.38874
      H   76    0.10943      0.00000     0.38998    0.00059     0.39057
      H   77    0.10892      0.00000     0.39013    0.00096     0.39108
      H   78    0.10869      0.00000     0.39007    0.00124     0.39131
      H   79    0.11973      0.00000     0.37937    0.00090     0.38027
      H   80    0.11352      0.00000     0.38565    0.00083     0.38648
      H   81    0.11535      0.00000     0.38384    0.00082     0.38465
      H   82    0.11469      0.00000     0.38465    0.00065     0.38531
      H   83    0.11268      0.00000     0.38675    0.00057     0.38732
      H   84    0.24915      0.00000     0.24902    0.00183     0.25085
      H   85    0.25639      0.00000     0.24184    0.00177     0.24361
      H   86    0.25814      0.00000     0.24049    0.00137     0.24186
      H   87    0.25836      0.00000     0.24035    0.00128     0.24164
 =======================================================================
   * Total *    2.00000     56.97672   124.40290    0.62038   182.00000

 Normal termination of Gaussian 16 at Mon Dec  5 10:21:53 2022.
 Gaussian 16:  ES64L-G16RevA.03 25-Dec-2016

 ----------------------------------------------------------------------
 # PBE1PBE/def2TZVP empiricaldispersion=GD3BJ int=(grid=ultrafine) geom
 =check guess=read scrf=(smd,solvent=Chloroform)
 ----------------------------------------------------------------------

 --------------
 1ccg_II_Q_solv
 --------------
 Structure from the checkpoint file:  "1ccg_II_Q.chk"
 Charge =  0 Multiplicity = 5

                         Standard orientation:
 ---------------------------------------------------------------------
 Center     Atomic      Atomic             Coordinates (Angstroms)
 Number     Number       Type             X           Y           Z
 ---------------------------------------------------------------------
      1          6           0       -2.341147   -0.087175    0.262138
      2          6           0        0.995264   -3.454204   -0.237578
      3          6           0        4.282185   -0.048016   -0.646326
      4          6           0        0.880258    3.318637   -0.398269
      5          6           0       -1.739433   -1.335050    0.166899
      6          6           0       -2.438089   -2.529722    0.156800
      7          6           0       -1.460638   -3.540642    0.036331
      8          6           0       -0.253692   -2.860163   -0.068963
      9          6           0       -1.671537   -5.060417    0.072694
     10          6           0       -3.964882   -2.642523    0.252103
     11          6           0       -4.716174   -2.701943   -1.043627
     12          6           0       -6.240043   -2.788572   -0.864662
     13          8           0       -6.753382   -3.808122   -0.399679
     14          8           0       -6.965770   -1.850150   -1.195826
     15          6           0        2.242116   -2.822105   -0.302203
     16          6           0        3.460591   -3.503376   -0.345264
     17          6           0        4.422473   -2.503552   -0.389279
     18          6           0        3.711319   -1.300676   -0.442255
     19          6           0        3.589811   -5.017051   -0.203352
     20          6           0        5.826668   -2.547984   -0.353391
     21          6           0        6.688241   -3.688815   -0.192611
     22          6           0        3.655693    1.203852   -0.694268
     23          6           0        4.309907    2.399294   -0.985190
     24          6           0        3.276689    3.357698   -0.976926
     25          6           0        2.117318    2.687864   -0.616413
     26          6           0        5.810632    2.552230   -1.345141
     27          6           0        3.268335    4.743920   -1.202791
     28          6           0        4.379370    5.643972   -1.278697
     29          6           0       -0.336058    2.734044   -0.104899
     30          6           0       -1.495196    3.413133    0.211575
     31          6           0       -2.441354    2.395890    0.381751
     32          6           0       -1.777510    1.194879    0.181837
     33          6           0       -1.669620    4.913025    0.468814
     34          6           0       -3.898665    2.565334    0.794718
     35          6           0       -4.837188    2.634942   -0.396513
     36          6           0       -6.308954    2.666210   -0.062378
     37          8           0       -7.093116    2.218160   -0.891441
     38          8           0       -6.690412    3.138002    1.006424
     39          7           0       -0.424535   -1.539306    0.027156
     40          7           0        2.404121   -1.502698   -0.273888
     41          7           0        2.336094    1.381642   -0.480508
     42          7           0       -0.507987    1.413529   -0.078889
     43         26           0        0.959964   -0.045150   -0.000976
     44          7           0        2.280541   -0.306056    3.723406
     45          6           0        1.737098   -0.806619    2.654394
     46          7           0        1.259811    0.189171    1.959721
     47          6           0        1.499839    1.300357    2.584281
     48          6           0        2.171460    0.990545    3.751289
     49          1           0        2.780947   -0.819336    4.373207
     50          8           0        0.651998   -0.387767   -1.932913
     51          1           0       -3.399030   -0.106564    0.421534
     52          1           0        1.001868   -4.520318   -0.328448
     53          1           0        5.343079   -0.040119   -0.785404
     54          1           0        0.881058    4.386340   -0.468343
     55          1           0       -0.824353   -5.548564   -0.361923
     56          1           0       -1.785917   -5.380454    1.087284
     57          1           0       -2.551373   -5.311778   -0.481928
     58          1           0       -4.284954   -1.735671    0.721224
     59          1           0       -4.148069   -3.583896    0.726613
     60          1           0       -4.423065   -3.618794   -1.510930
     61          1           0       -4.530858   -1.768772   -1.533269
     62          1           0        3.941349   -5.432917   -1.124426
     63          1           0        4.284184   -5.243998    0.578466
     64          1           0        2.634516   -5.435739    0.035422
     65          1           0        6.322107   -1.605619   -0.460107
     66          1           0        6.266819   -4.665859   -0.079973
     67          1           0        7.750470   -3.560279   -0.185667
     68          1           0        6.492506    3.366680   -1.216231
     69          1           0        5.387840    3.251809   -2.035601
     70          1           0        5.879880    2.561583   -0.277425
     71          1           0        2.303197    5.186301   -1.335858
     72          1           0        5.376169    5.275014   -1.155558
     73          1           0        4.212819    6.685514   -1.458557
     74          1           0       -2.559535    5.256870   -0.015667
     75          1           0       -1.746436    5.087769    1.521650
     76          1           0       -0.824731    5.442179    0.080150
     77          1           0       -3.961501    3.517706    1.278390
     78          1           0       -4.161496    1.675911    1.328335
     79          1           0       -4.685522    1.721866   -0.933346
     80          1           0       -4.631324    3.573210   -0.867865
     81          1           0        1.689860   -1.843012    2.392559
     82          1           0        1.226705    2.281046    2.254818
     83          1           0        2.521993    1.663246    4.505942
     84          1           0        1.048135   -0.131521   -2.768983
     85          1           0       -0.208135    0.029447   -1.845145
     86          1           0       -7.489499   -4.224820   -0.853656
     87          1           0       -7.130146    3.991169    1.024820
 ---------------------------------------------------------------------

 SCF Done:  E(UPBE1PBE) =  -3399.22358887     A.U. after   39 cycles

 Alpha virt. eigenvalues --    0.62837   0.62935   0.63073   0.63400   0.63530
 Alpha virt. eigenvalues --    0.63876   0.64061   0.64269   0.64583   0.64965
 Alpha virt. eigenvalues --    0.65379   0.65548   0.65647   0.65936   0.66339

  Beta  occ. eigenvalues -- -256.30863 -30.03455 -25.87307 -25.86477 -25.86207
  Beta  occ. eigenvalues --  -19.24926 -19.24531 -19.21079 -19.17485 -19.17276
  Beta  occ. eigenvalues --  -14.44166 -14.37745 -14.35578 -14.34951 -14.34765
  Beta  occ. eigenvalues --  -14.34559 -10.34444 -10.34213 -10.26939 -10.26760
  Beta  occ. eigenvalues --  -10.24339 -10.24163 -10.23894 -10.23725 -10.23611
  Beta  occ. eigenvalues --  -10.23572 -10.23520 -10.23445 -10.23439 -10.23324
  Beta  occ. eigenvalues --  -10.23135 -10.22967 -10.22289 -10.22151 -10.22074
  Beta  occ. eigenvalues --  -10.22061 -10.21968 -10.21863 -10.21779 -10.21630
  Beta  occ. eigenvalues --  -10.21624 -10.21592 -10.21592 -10.21592 -10.21527
  Beta  occ. eigenvalues --  -10.21523 -10.21522 -10.21414 -10.21357 -10.20993
  Beta  occ. eigenvalues --  -10.20768 -10.20717 -10.18997  -3.34772  -2.09795
  Beta  occ. eigenvalues --   -2.09656  -2.09376  -1.17181  -1.17056  -1.09356
  Beta  occ. eigenvalues --   -1.05597  -1.03280  -1.02601  -1.00076  -0.99428
  Beta  occ. eigenvalues --   -0.99028  -0.98232  -0.93113  -0.84749  -0.84248
  Beta  occ. eigenvalues --   -0.83443  -0.83249  -0.82662  -0.81764  -0.81401
  Beta  occ. eigenvalues --   -0.79322  -0.78548  -0.78451  -0.78063  -0.76163
  Beta  occ. eigenvalues --   -0.75180  -0.73802  -0.73314  -0.72382  -0.71637
  Beta  occ. eigenvalues --   -0.70289  -0.69234  -0.69018  -0.66781  -0.66555
  Beta  occ. eigenvalues --   -0.66070  -0.65149  -0.64606  -0.63123  -0.62752
  Beta  occ. eigenvalues --   -0.61965  -0.59510  -0.59216  -0.58244  -0.57668
  Beta  occ. eigenvalues --   -0.56604  -0.55524  -0.54972  -0.53976  -0.53002
  Beta  occ. eigenvalues --   -0.52678  -0.52594  -0.51309  -0.50958  -0.50720
  Beta  occ. eigenvalues --   -0.50368  -0.50072  -0.49687  -0.49400  -0.49185
  Beta  occ. eigenvalues --   -0.48826  -0.48495  -0.48405  -0.47602  -0.46611
  Beta  occ. eigenvalues --   -0.46089  -0.45891  -0.45624  -0.45533  -0.45195
  Beta  occ. eigenvalues --   -0.44669  -0.44297  -0.44132  -0.43938  -0.43757
  Beta  occ. eigenvalues --   -0.43616  -0.43028  -0.42664  -0.42461  -0.42139
  Beta  occ. eigenvalues --   -0.41575  -0.41494  -0.41055  -0.40873  -0.40294
  Beta  occ. eigenvalues --   -0.40239  -0.40110  -0.39340  -0.38933  -0.38792
  Beta  occ. eigenvalues --   -0.38179  -0.38107  -0.37766  -0.37292  -0.36899
  Beta  occ. eigenvalues --   -0.36651  -0.36451  -0.36287  -0.36119  -0.35707
  Beta  occ. eigenvalues --   -0.35435  -0.34850  -0.34534  -0.34479  -0.33815
  Beta  occ. eigenvalues --   -0.33345  -0.32934  -0.32359  -0.32207  -0.31650
  Beta  occ. eigenvalues --   -0.30925  -0.30835  -0.30236  -0.29897  -0.28196
  Beta  occ. eigenvalues --   -0.27781  -0.27670  -0.27456  -0.24733  -0.24154
  Beta  occ. eigenvalues --   -0.23539  -0.23088  -0.21734  -0.20427  -0.19654
  Beta  occ. eigenvalues --   -0.18741  -0.14730
  Beta virt. eigenvalues --   -0.08410  -0.07664  -0.04065  -0.01351  -0.00059
  Beta virt. eigenvalues --    0.00062   0.00352   0.00676   0.01600   0.01908
  Beta virt. eigenvalues --    0.02771   0.03284   0.04273   0.04974   0.05467

 Mulliken charges and spin densities:
               1          2
     1  C   -0.466674  -0.022899
     2  C   -0.533447  -0.010633
     3  C   -0.508992  -0.025609
     4  C   -0.558156  -0.016993
     5  C    0.267712   0.011025
     6  C    0.014567  -0.006852
     7  C   -0.097702   0.005907
     8  C    0.321535  -0.000540
     9  C   -0.435855   0.000667
    10  C   -0.420850   0.001858
    11  C   -0.109976  -0.000505
    12  C    0.256013   0.000034
    13  O   -0.346613   0.000013
    14  O   -0.399463   0.000003
    15  C    0.281928  -0.001635
    16  C   -0.112038   0.006434
    17  C    0.000201  -0.002602
    18  C    0.311492   0.009948
    19  C   -0.412741   0.000824
    20  C   -0.195462   0.008185
    21  C   -0.363573  -0.012576
    22  C    0.226665   0.010382
    23  C   -0.185051   0.005309
    24  C    0.028382   0.000006
    25  C    0.258627  -0.002528
    26  C   -0.761903  -0.000187
    27  C   -0.168369   0.000837
    28  C   -0.374123  -0.001501
    29  C    0.309477  -0.003341
    30  C   -0.134818   0.010925
    31  C    0.034080  -0.007480
    32  C    0.228696   0.009802
    33  C   -0.428744   0.000755
    34  C   -0.329776   0.001601
    35  C   -0.178982  -0.000492
    36  C    0.256063  -0.000059
    37  O   -0.372768  -0.000051
    38  O   -0.356395   0.000007
    39  N   -0.118008   0.031505
    40  N   -0.148088   0.023329
    41  N   -0.087949   0.021145
    42  N   -0.241603   0.009758
    43  Fe   0.071717   3.877054
    44  N   -0.148386   0.000721
    45  C    0.008394   0.002011
    46  N   -0.043172   0.010865
    47  C   -0.148484   0.000768
    48  C   -0.113661   0.005886
    49  H    0.262402   0.001691
    50  O   -0.520578   0.024938
    51  H    0.127523   0.000178
    52  H    0.122278   0.000028
    53  H    0.166302   0.000757
    54  H    0.115589   0.000385
    55  H    0.147277   0.000006
    56  H    0.156721   0.000266
    57  H    0.146870   0.000173
    58  H    0.135746  -0.000313
    59  H    0.132444   0.000013
    60  H    0.124769  -0.000012
    61  H    0.130479   0.000173
    62  H    0.162704  -0.000033
    63  H    0.147325   0.000252
    64  H    0.135567  -0.000045
    65  H    0.127018  -0.000294
    66  H    0.152892   0.000551
    67  H    0.163107   0.000712
    68  H    0.287091   0.001774
    69  H    0.268274   0.000617
    70  H    0.280064  -0.000018
    71  H    0.138221  -0.000193
    72  H    0.141377   0.000088
    73  H    0.161389   0.000199
    74  H    0.146357   0.000140
    75  H    0.157373   0.000211
    76  H    0.145977  -0.000035
    77  H    0.118537   0.000017
    78  H    0.132886  -0.000299
    79  H    0.132083   0.000130
    80  H    0.136676   0.000008
    81  H    0.200419   0.001068
    82  H    0.170979   0.001771
    83  H    0.181835   0.000949
    84  H    0.351081   0.010080
    85  H    0.359733   0.002986
    86  H    0.388331  -0.000001
    87  H    0.391156   0.000003
 Sum of Mulliken charges =  -0.00000   4.00000

 Dipole moment (field-independent basis, Debye):
    X=              2.0517    Y=              0.6504    Z=              7.6563  Tot=              7.9531
 Quadrupole moment (field-independent basis, Debye-Ang):
   XX=           -331.0083   YY=           -226.3618   ZZ=           -272.6458
   XY=             11.7213   XZ=             10.7410   YZ=              6.5631

 Normal termination of Gaussian 16 at Tue Dec  6 04:05:25 2022.
