 Gaussian 16, Revision A.03,

 ----------------------------------------------------------------------
 # PBE1PBE/def2TZVP scf=maxcycle=999 empiricaldispersion=GD3BJ int=(gri
 d=ultrafine) geom=check pop=nbo
 ----------------------------------------------------------------------

 ----------
 2ce0_III_D
 ----------
 Structure from the checkpoint file:  "2ce0_III_D.chk"
 Charge =  1 Multiplicity = 2

 SCF Done:  E(UPBE1PBE) =  -3880.35726504     A.U. after   70 cycles

 Summary of Natural Population Analysis:

                                       Natural Population
                Natural  -----------------------------------------------
    Atom  No    Charge         Core      Valence    Rydberg      Total
 -----------------------------------------------------------------------
      C    1   -0.32044      0.99969     2.31759    0.00316     3.32044
      C    2    0.05719      0.99954     1.93394    0.00933     2.94281
      N    3   -0.24009      0.99968     2.73040    0.01001     3.74009
      C    4   -0.03995      0.99943     2.03081    0.00972     3.03995
      C    5    0.09741      0.99966     1.89315    0.00979     2.90259
      N    6   -0.16638      0.99968     2.63981    0.02689     3.66638
      C    7   -0.30492      0.99972     2.29905    0.00614     3.30492
      C    8   -0.28028      0.99966     2.27037    0.01025     3.28028
      S    9    0.30107      4.99917     2.67684    0.02291     7.69893
      C   10   -0.37559      0.99964     2.36675    0.00920     3.37559
     Fe   11    0.06095      8.99550     3.91950    0.02405    12.93905
      C   12   -0.09881      0.99945     2.09009    0.00927     3.09881
      C   13   -0.10515      0.99947     2.09707    0.00862     3.10515
      C   14   -0.11144      0.99946     2.10323    0.00874     3.11144
      C   15   -0.12427      0.99945     2.11593    0.00889     3.12427
      N   16   -0.15980      0.99968     2.63577    0.02435     3.65980
      C   17    0.04766      0.99950     1.94185    0.01098     2.95234
      C   18   -0.00904      0.99938     1.99998    0.00968     3.00904
      C   19   -0.01656      0.99940     2.00889    0.00828     3.01656
      C   20    0.06463      0.99952     1.92541    0.01044     2.93537
      C   21   -0.31874      0.99970     2.31561    0.00343     3.31874
      C   22   -0.20672      0.99968     2.19958    0.00747     3.20672
      C   23   -0.25754      0.99963     2.24939    0.00853     3.25754
      C   24    0.37986      0.99975     1.60366    0.01673     2.62014
      O   25   -0.28939      0.99989     3.27749    0.01200     4.28939
      O   26   -0.31778      0.99982     3.30298    0.01498     4.31778
      N   27   -0.17000      0.99969     2.64558    0.02474     3.67000
      C   28    0.05447      0.99952     1.93520    0.01081     2.94553
      C   29    0.04139      0.99936     1.95098    0.00826     2.95861
      C   30   -0.10036      0.99936     2.09053    0.01047     3.10036
      C   31    0.07618      0.99950     1.91404    0.01027     2.92382
      C   32   -0.31852      0.99969     2.31531    0.00351     3.31852
      C   33    0.39595      0.99960     1.59683    0.00761     2.60405
      C   34   -0.36731      0.99964     2.35994    0.00773     3.36731
      N   35   -0.16022      0.99969     2.63659    0.02394     3.66022
      C   36    0.04926      0.99950     1.94058    0.01066     2.95074
      C   37    0.04836      0.99935     1.94351    0.00878     2.95164
      C   38   -0.08768      0.99933     2.07748    0.01087     3.08768
      C   39    0.06720      0.99950     1.92246    0.01083     2.93280
      C   40   -0.32161      0.99970     2.31832    0.00359     3.32161
      C   41    0.12161      0.99959     1.86958    0.00922     2.87839
      C   42   -0.36968      0.99962     2.36075    0.00931     3.36968
      N   43   -0.18998      0.99968     2.66738    0.02292     3.68998
      C   44    0.05898      0.99947     1.93062    0.01093     2.94102
      C   45   -0.02606      0.99956     2.01806    0.00844     3.02606
      C   46    0.01175      0.99956     1.97982    0.00887     2.98825
      C   47    0.03632      0.99946     1.95339    0.01083     2.96368
      C   48   -0.32148      0.99968     2.31805    0.00375     3.32148
      C   49   -0.21546      0.99966     2.20910    0.00671     3.21546
      C   50   -0.25051      0.99964     2.24216    0.00871     3.25051
      C   51    0.37744      0.99973     1.60548    0.01735     2.62256
      O   52   -0.28772      0.99989     3.27587    0.01195     4.28772
      O   53   -0.31070      0.99981     3.29541    0.01548     4.31070
      H   54    0.11901      0.00000     0.38052    0.00047     0.38099
      H   55    0.11405      0.00000     0.38527    0.00068     0.38595
      H   56    0.11232      0.00000     0.38702    0.00066     0.38768
      H   57    0.11589      0.00000     0.38332    0.00080     0.38411
      H   58    0.21047      0.00000     0.28870    0.00083     0.28953
      H   59    0.11332      0.00000     0.38566    0.00102     0.38668
      H   60    0.12397      0.00000     0.37547    0.00056     0.37603
      H   61    0.11453      0.00000     0.38493    0.00054     0.38547
      H   62    0.11108      0.00000     0.38821    0.00072     0.38892
      H   63    0.10913      0.00000     0.38997    0.00091     0.39087
      H   64    0.11119      0.00000     0.38828    0.00053     0.38881
      H   65    0.10949      0.00000     0.38968    0.00083     0.39051
      H   66    0.10500      0.00000     0.39376    0.00125     0.39500
      H   67    0.11637      0.00000     0.38286    0.00077     0.38363
      H   68    0.15478      0.00000     0.34475    0.00047     0.34522
      H   69    0.13313      0.00000     0.36634    0.00053     0.36687
      H   70    0.11601      0.00000     0.38328    0.00071     0.38399
      H   71    0.08206      0.00000     0.41713    0.00081     0.41794
      H   72    0.12673      0.00000     0.37275    0.00052     0.37327
      H   73    0.14782      0.00000     0.35114    0.00105     0.35218
      H   74    0.13460      0.00000     0.36464    0.00075     0.36540
      H   75    0.10246      0.00000     0.39675    0.00079     0.39754
      H   76    0.11461      0.00000     0.38479    0.00060     0.38539
      H   77    0.11564      0.00000     0.38366    0.00070     0.38436
      H   78    0.11372      0.00000     0.38558    0.00069     0.38628
      H   79    0.11446      0.00000     0.38441    0.00113     0.38554
      H   80    0.11744      0.00000     0.38190    0.00066     0.38256
      H   81    0.10928      0.00000     0.39014    0.00058     0.39072
      H   82    0.11408      0.00000     0.38518    0.00073     0.38592
      H   83    0.11260      0.00000     0.38608    0.00132     0.38740
      H   84    0.11106      0.00000     0.38822    0.00072     0.38894
      H   85    0.11208      0.00000     0.38723    0.00070     0.38792
      H   86    0.11348      0.00000     0.38580    0.00072     0.38652
      H   87    0.11532      0.00000     0.38395    0.00073     0.38468
      H   88    0.11698      0.00000     0.38218    0.00084     0.38302
      H   89    0.10794      0.00000     0.39124    0.00082     0.39206
      H   90    0.11631      0.00000     0.38302    0.00066     0.38369
      H   91    0.25097      0.00000     0.24796    0.00108     0.24903
      H   92    0.24978      0.00000     0.24937    0.00086     0.25022
      H   93    0.10593      0.00000     0.39330    0.00078     0.39407
      H   94    0.12062      0.00000     0.37862    0.00077     0.37938
      H   95    0.10258      0.00000     0.39646    0.00095     0.39742
      H   96    0.11702      0.00000     0.38185    0.00112     0.38298
      H   97    0.10823      0.00000     0.38988    0.00189     0.39177
      H   98    0.10726      0.00000     0.39213    0.00061     0.39274
      H   99    0.11677      0.00000     0.38243    0.00080     0.38323
      H  100    0.11561      0.00000     0.38365    0.00074     0.38439
      H  101    0.10935      0.00000     0.38916    0.00149     0.39065
 =======================================================================
   * Total *    1.00000     64.97394   138.38675    0.63931   204.00000

 Normal termination of Gaussian 16 at Sat Feb  4 08:14:54 2023.
 Gaussian 16:  ES64L-G16RevA.03 25-Dec-2016

 ----------------------------------------------------------------------
 # PBE1PBE/def2TZVP empiricaldispersion=GD3BJ int=(grid=ultrafine) geom
 =check guess=read scrf=(smd,solvent=Chloroform)
 ----------------------------------------------------------------------

 ---------------
 2ce0_III_D_solv
 ---------------
 Structure from the checkpoint file:  "2ce0_III_D.chk"
 Charge =  1 Multiplicity = 2

                         Standard orientation:
 ---------------------------------------------------------------------
 Center     Atomic      Atomic             Coordinates (Angstroms)
 Number     Number       Type             X           Y           Z
 ---------------------------------------------------------------------
      1          6           0        2.463463   -1.764388    4.967158
      2          6           0        1.671824   -1.242089    3.813114
      3          7           0        0.322260   -0.982503    3.904583
      4          6           0        2.029958   -0.959966    2.540211
      5          6           0       -0.115795   -0.558411    2.728594
      6          7           0        0.895494   -0.553455    1.874070
      7          6           0       -0.421372    2.908623   -2.603046
      8          6           0        0.771200    2.054163   -2.914137
      9         16           0        0.606091    0.436851   -2.289596
     10          6           0        1.636523   -0.573279   -3.341828
     11         26           0        0.796276   -0.059784   -0.075413
     12          6           0       -2.587887   -0.250923   -0.200191
     13          6           0        1.024013   -3.405572   -0.724072
     14          6           0        4.184291    0.235404   -0.382558
     15          6           0        0.620957    3.164099    1.021453
     16          7           0       -0.525684   -1.544961   -0.417364
     17          6           0       -1.898986   -1.417457   -0.378922
     18          6           0       -2.491977   -2.718452   -0.564252
     19          6           0       -1.484228   -3.596057   -0.729045
     20          6           0       -0.236515   -2.869092   -0.636142
     21          6           0       -1.580156   -5.118086   -0.959399
     22          6           0       -4.021410   -2.978554   -0.529429
     23          6           0       -4.449672   -3.016010    0.954704
     24          6           0       -5.949539   -3.023321    1.187244
     25          8           0       -6.714296   -2.721101    0.240957
     26          8           0       -6.406437   -3.312859    2.334847
     27          7           0        2.312777   -1.344790   -0.454805
     28          6           0        2.211498   -2.703112   -0.672798
     29          6           0        3.535279   -3.247426   -0.876898
     30          6           0        4.395208   -2.223284   -0.795614
     31          6           0        3.649515   -1.024726   -0.525674
     32          6           0        3.814941   -4.743791   -1.146188
     33          6           0        5.924981   -2.273449   -0.986537
     34          6           0        6.429940   -2.659837   -2.192211
     35          7           0        2.136879    1.426952    0.253084
     36          6           0        3.499967    1.340694    0.052814
     37          6           0        4.099834    2.577362    0.465957
     38          6           0        3.114763    3.383624    0.869834
     39          6           0        1.866369    2.676958    0.740577
     40          6           0        5.619944    2.862370    0.427416
     41          6           0        3.240751    4.817073    1.422345
     42          6           0        3.882389    5.791676    0.753533
     43          7           0       -0.718007    1.235644    0.341334
     44          6           0       -0.563970    2.554020    0.722120
     45          6           0       -1.838128    3.215020    0.754973
     46          6           0       -2.816654    2.154920    0.363077
     47          6           0       -2.057642    0.962911    0.133457
     48          6           0       -2.131335    4.670572    1.099550
     49          6           0       -4.328797    2.354170    0.229184
     50          6           0       -4.634230    2.688767   -1.233410
     51          6           0       -6.118462    2.850153   -1.435948
     52          8           0       -6.560756    4.008450   -1.617805
     53          8           0       -6.835569    1.817834   -1.412658
     54          1           0        3.389156   -2.166535    4.611814
     55          1           0        2.660815   -0.967933    5.653898
     56          1           0        1.907480   -2.532826    5.462421
     57          1           0        3.013718   -1.038184    2.126693
     58          1           0       -0.236596   -1.095875    4.726061
     59          1           0       -1.121210   -0.267758    2.505968
     60          1           0        1.853040   -1.497454   -2.847943
     61          1           0        1.123460   -0.771068   -4.259730
     62          1           0        2.550450   -0.056532   -3.548250
     63          1           0       -0.397312    3.192727   -1.571733
     64          1           0       -0.401005    3.785944   -3.215249
     65          1           0       -1.316671    2.356834   -2.800199
     66          1           0        1.641577    2.504358   -2.484405
     67          1           0        0.894515    2.004687   -3.975855
     68          1           0        6.731505   -1.795476   -2.746141
     69          1           0        7.275466   -3.296967   -2.037130
     70          1           0        5.679240   -3.190383   -2.739817
     71          1           0        6.580750   -2.008586   -0.183596
     72          1           0        3.595704    6.743802    1.148715
     73          1           0        4.939008    5.663488    0.863189
     74          1           0        3.622926    5.743108   -0.283395
     75          1           0        2.802277    5.044795    2.371440
     76          1           0        6.152727    1.941426    0.313814
     77          1           0        5.841233    3.506573   -0.397771
     78          1           0        5.917220    3.336229    1.339548
     79          1           0        5.217223    0.362616   -0.631091
     80          1           0        4.237736   -5.190790   -0.270782
     81          1           0        2.899066   -5.239075   -1.392699
     82          1           0        4.501587   -4.837216   -1.961473
     83          1           0        1.092606   -4.466679   -0.843432
     84          1           0       -1.116962   -5.632222   -0.143301
     85          1           0       -2.608979   -5.404924   -1.023805
     86          1           0       -1.081078   -5.373017   -1.870898
     87          1           0       -4.241764   -3.916161   -0.995515
     88          1           0       -4.536308   -2.189748   -1.036937
     89          1           0       -4.035321   -3.895023    1.402531
     90          1           0       -4.037068   -2.159589    1.445826
     91          1           0       -5.944346   -3.945303    2.889903
     92          1           0       -6.462881    0.980863   -1.125981
     93          1           0       -4.276062    1.898097   -1.859077
     94          1           0       -4.140245    3.600278   -1.498033
     95          1           0       -4.838256    1.455741    0.508787
     96          1           0       -4.644629    3.160045    0.858244
     97          1           0       -3.648539   -0.292479   -0.335059
     98          1           0       -1.227983    5.152446    1.410440
     99          1           0       -2.523160    5.169169    0.237706
    100          1           0       -2.848689    4.711876    1.892391
    101          1           0        0.569268    4.108891    1.521050
 ---------------------------------------------------------------------

 SCF Done:  E(UPBE1PBE) =  -3880.46812122     A.U. after   55 cycles

 Alpha virt. eigenvalues --    1.02806   1.03020   1.03385   1.03811   1.03945
 Alpha virt. eigenvalues --    1.04300   1.04686   1.04852   1.05009   1.05531
 Alpha virt. eigenvalues --    1.05633   1.06078   1.06187   1.06318   1.06711

  Beta  occ. eigenvalues -- -256.34422 -89.03174 -30.11353 -25.94167 -25.93932
  Beta  occ. eigenvalues --  -25.93648 -19.27677 -19.27598 -19.19604 -19.18679
  Beta  occ. eigenvalues --  -14.45321 -14.41020 -14.40720 -14.39463 -14.39358
  Beta  occ. eigenvalues --  -14.38876 -10.37022 -10.36065 -10.34418 -10.29139
  Beta  occ. eigenvalues --  -10.28146 -10.27805 -10.27406 -10.27076 -10.27064
  Beta  occ. eigenvalues --  -10.27054 -10.26991 -10.26830 -10.26736 -10.26606
  Beta  occ. eigenvalues --  -10.26536 -10.25343 -10.25164 -10.25150 -10.24632
  Beta  occ. eigenvalues --  -10.24629 -10.24393 -10.24350 -10.24313 -10.24299
  Beta  occ. eigenvalues --  -10.24236 -10.24135 -10.24030 -10.23928 -10.23902
  Beta  occ. eigenvalues --  -10.23863 -10.23833 -10.23828 -10.23813 -10.23353
  Beta  occ. eigenvalues --  -10.22893 -10.22602 -10.22517 -10.22313 -10.22177
  Beta  occ. eigenvalues --  -10.20984 -10.20681  -8.01164  -5.94825  -5.94510
  Beta  occ. eigenvalues --   -5.93993  -3.45643  -2.21578  -2.21112  -2.20650
  Beta  occ. eigenvalues --   -1.17523  -1.17312  -1.07553  -1.04303  -1.03730
  Beta  occ. eigenvalues --   -1.01365  -0.99724  -0.98945  -0.97799  -0.92071
  Beta  occ. eigenvalues --   -0.90078  -0.86698  -0.86221  -0.84808  -0.84465
  Beta  occ. eigenvalues --   -0.83937  -0.83857  -0.83628  -0.82774  -0.82193
  Beta  occ. eigenvalues --   -0.80229  -0.79821  -0.79365  -0.78439  -0.78198
  Beta  occ. eigenvalues --   -0.76741  -0.74691  -0.73600  -0.73362  -0.73305
  Beta  occ. eigenvalues --   -0.71632  -0.70466  -0.69883  -0.68949  -0.68696
  Beta  occ. eigenvalues --   -0.68593  -0.67517  -0.67150  -0.66660  -0.65528
  Beta  occ. eigenvalues --   -0.63290  -0.62419  -0.61927  -0.61461  -0.60506
  Beta  occ. eigenvalues --   -0.59367  -0.58271  -0.57582  -0.56982  -0.56071
  Beta  occ. eigenvalues --   -0.55170  -0.54878  -0.54550  -0.54151  -0.53676
  Beta  occ. eigenvalues --   -0.52992  -0.51925  -0.51033  -0.50912  -0.50805
  Beta  occ. eigenvalues --   -0.50195  -0.50014  -0.49886  -0.49169  -0.49031
  Beta  occ. eigenvalues --   -0.48941  -0.48882  -0.48524  -0.47920  -0.47628
  Beta  occ. eigenvalues --   -0.47344  -0.47055  -0.46883  -0.46708  -0.46425
  Beta  occ. eigenvalues --   -0.46189  -0.45839  -0.45531  -0.45272  -0.45167
  Beta  occ. eigenvalues --   -0.44884  -0.44573  -0.44344  -0.44172  -0.43906
  Beta  occ. eigenvalues --   -0.43854  -0.43691  -0.43438  -0.43269  -0.42912
  Beta  occ. eigenvalues --   -0.42721  -0.42333  -0.42304  -0.41970  -0.41890
  Beta  occ. eigenvalues --   -0.41572  -0.41194  -0.41140  -0.40737  -0.40553
  Beta  occ. eigenvalues --   -0.40364  -0.40101  -0.39862  -0.39690  -0.39336
  Beta  occ. eigenvalues --   -0.39194  -0.38923  -0.38588  -0.38462  -0.38210
  Beta  occ. eigenvalues --   -0.37508  -0.37294  -0.36638  -0.36143  -0.35795
  Beta  occ. eigenvalues --   -0.35320  -0.35091  -0.34693  -0.34449  -0.34316
  Beta  occ. eigenvalues --   -0.33673  -0.33379  -0.32360  -0.31898  -0.31098
  Beta  occ. eigenvalues --   -0.30975  -0.29834  -0.29694  -0.28667  -0.27666
  Beta  occ. eigenvalues --   -0.26964  -0.25834  -0.24923  -0.24722  -0.23310
  Beta  occ. eigenvalues --   -0.22252  -0.21555  -0.21260  -0.20964
  Beta virt. eigenvalues --   -0.15908  -0.09981  -0.09366  -0.05323  -0.03139
  Beta virt. eigenvalues --   -0.00877  -0.00026   0.00415   0.00471   0.00915
  Beta virt. eigenvalues --    0.01400   0.02274   0.02349   0.02553   0.02941

 Mulliken charges and spin densities:
               1          2
     1  C   -0.407565  -0.000048
     2  C    0.159171   0.000253
     3  N   -0.205817  -0.000072
     4  C   -0.242967  -0.000528
     5  C   -0.005528  -0.000266
     6  N    0.052184  -0.000183
     7  C   -0.363949   0.000091
     8  C   -0.172952  -0.000171
     9  S    0.030641  -0.001719
    10  C   -0.389545   0.000185
    11  Fe  -0.412338   0.032895
    12  C   -0.597560   0.015105
    13  C   -0.531820   0.024273
    14  C   -0.543284   0.013230
    15  C   -0.500432  -0.010533
    16  N    0.066607   0.013937
    17  C    0.285492  -0.014067
    18  C   -0.006535  -0.002741
    19  C   -0.090060  -0.000567
    20  C    0.216890  -0.018158
    21  C   -0.421575   0.000054
    22  C   -0.308193   0.000512
    23  C   -0.285667  -0.000236
    24  C    0.329977  -0.000037
    25  O   -0.419661  -0.000004
    26  O   -0.331967  -0.000016
    27  N    0.002130   0.024861
    28  C    0.275626  -0.029832
    29  C   -0.098607   0.099076
    30  C    0.077096  -0.128233
    31  C    0.115409   0.011771
    32  C   -0.392748  -0.005767
    33  C   -0.272395   0.963324
    34  C   -0.345075  -0.067492
    35  N    0.066584  -0.007070
    36  C    0.271612  -0.003749
    37  C   -0.018440   0.014918
    38  C   -0.015553  -0.007244
    39  C    0.219083   0.001461
    40  C   -0.419853  -0.000966
    41  C   -0.050693   0.013658
    42  C   -0.320527  -0.001162
    43  N    0.019607   0.004136
    44  C    0.187326   0.002978
    45  C   -0.103987  -0.012194
    46  C    0.044759   0.010265
    47  C    0.243472  -0.012998
    48  C   -0.417741   0.000716
    49  C   -0.353826  -0.000730
    50  C   -0.264310   0.000323
    51  C    0.324132   0.000073
    52  O   -0.429466   0.000034
    53  O   -0.303304   0.000002
    54  H    0.159624   0.000000
    55  H    0.154235   0.000016
    56  H    0.150645   0.000002
    57  H    0.171171   0.000173
    58  H    0.276602   0.000024
    59  H    0.191975   0.000033
    60  H    0.169803  -0.000015
    61  H    0.169221  -0.000020
    62  H    0.151712   0.000048
    63  H    0.126077  -0.000015
    64  H    0.142824  -0.000001
    65  H    0.119638  -0.000034
    66  H    0.118272  -0.000043
    67  H    0.157307  -0.000125
    68  H    0.146703   0.077031
    69  H    0.138011   0.032500
    70  H    0.138723   0.008586
    71  H    0.154587  -0.047080
    72  H    0.177273   0.000071
    73  H    0.216700   0.001348
    74  H    0.198751   0.000348
    75  H    0.202964  -0.000744
    76  H    0.155949   0.000491
    77  H    0.168475   0.000535
    78  H    0.164478   0.000475
    79  H    0.167141   0.000233
    80  H    0.157361   0.004368
    81  H    0.142974   0.000024
    82  H    0.146425   0.002370
    83  H    0.160284  -0.001008
    84  H    0.150676  -0.000086
    85  H    0.147110   0.000018
    86  H    0.154649  -0.000062
    87  H    0.147073  -0.000007
    88  H    0.137709  -0.000089
    89  H    0.153473   0.000009
    90  H    0.167361   0.000007
    91  H    0.382225   0.000001
    92  H    0.379720  -0.000001
    93  H    0.164381  -0.000024
    94  H    0.135183  -0.000020
    95  H    0.152596   0.000152
    96  H    0.146471   0.000090
    97  H    0.149054  -0.000720
    98  H    0.133092  -0.000021
    99  H    0.159093  -0.000443
   100  H    0.158580  -0.000325
   101  H    0.141793   0.000584
 Sum of Mulliken charges =   1.00000   1.00000

 Dipole moment (field-independent basis, Debye):
    X=             19.9615    Y=              4.0806    Z=             10.5533  Tot=             22.9452
 Quadrupole moment (field-independent basis, Debye-Ang):
   XX=           -317.9735   YY=           -220.6573   ZZ=           -265.4947
   XY=             83.1842   XZ=            -25.1497   YZ=              8.2989

 Normal termination of Gaussian 16 at Sun Feb  5 19:13:34 2023.
