 Gaussian 16, Revision A.03,
 Gaussian 16:  ES64L-G16RevA.03 25-Dec-2016

 ----------------------------------------------------------------------
 # PBE1PBE/def2TZVP empiricaldispersion=GD3BJ scf=maxcycle=999 geom=che
 ck pop=nbo
 ----------------------------------------------------------------------

 ----------
 1jp6_III_H
 ----------
 Structure from the checkpoint file:  "1jp6_III_H.chk"
 Charge =  1 Multiplicity = 6

                         Standard orientation:
 ---------------------------------------------------------------------
 Center     Atomic      Atomic             Coordinates (Angstroms)
 Number     Number       Type             X           Y           Z
 ---------------------------------------------------------------------
      1          6           0       -1.584205   -0.057152    5.370489
      2          6           0       -1.242066   -0.471764    3.973568
      3          7           0       -0.535866   -1.621002    3.694172
      4          6           0       -1.447994    0.141076    2.782630
      5          6           0       -0.316856   -1.696704    2.393819
      6          7           0       -0.859390   -0.640343    1.817736
      7         26           0       -0.766322    0.128867   -0.424672
      8          6           0        2.581493   -0.493736   -0.369636
      9          6           0       -1.355789   -3.166658   -1.095311
     10          6           0       -4.119473    0.756792   -0.533048
     11          6           0       -0.156752    3.390013    0.179876
     12          7           0        0.370110   -1.494202   -0.671496
     13          6           0        1.743426   -1.569620   -0.609168
     14          6           0        2.197858   -2.938607   -0.834561
     15          6           0        1.061533   -3.679167   -1.040661
     16          6           0       -0.046396   -2.791976   -0.942789
     17          6           0        0.951997   -5.163364   -1.322324
     18          6           0        3.620105   -3.362424   -0.823294
     19          6           0        4.005448   -4.166983    0.466937
     20          6           0        3.576569   -3.461056    1.726091
     21          8           0        4.149629   -2.428134    2.113617
     22          8           0        2.602098   -3.968465    2.377287
     23          7           0       -2.411712   -0.957573   -0.740316
     24          6           0       -2.458179   -2.321663   -1.005427
     25          6           0       -3.859484   -2.736871   -1.175466
     26          6           0       -4.618238   -1.651160   -1.017793
     27          6           0       -3.708626   -0.563278   -0.752238
     28          6           0       -4.262917   -4.155014   -1.473858
     29          6           0       -6.126238   -1.518125   -1.090390
     30          6           0       -6.795504   -1.977217   -2.175694
     31          7           0       -1.908643    1.766540   -0.205741
     32          6           0       -3.294525    1.844915   -0.283766
     33          6           0       -3.736045    3.196704   -0.081252
     34          6           0       -2.606563    3.923564    0.110480
     35          6           0       -1.485549    3.022443    0.037543
     36          6           0       -5.171943    3.626123   -0.106531
     37          6           0       -2.401352    5.384615    0.355273
     38          6           0       -3.468018    6.218686    0.411099
     39          7           0        0.898746    1.249813   -0.137454
     40          6           0        0.960598    2.584794    0.101315
     41          6           0        2.307849    3.023893    0.240636
     42          6           0        3.091120    1.908082    0.071172
     43          6           0        2.199071    0.798753   -0.156548
     44          6           0        2.758169    4.440458    0.504000
     45          6           0        4.593450    1.875612    0.099853
     46          6           0        5.055845    2.223391   -1.367659
     47          6           0        6.536559    2.258469   -1.601950
     48          8           0        7.265699    3.172814   -1.155872
     49          8           0        7.026668    1.325391   -2.297852
     50          8           0       -0.627854    0.797905   -2.584563
     51          1           0        0.159195    0.964561   -3.108375
     52          1           0       -0.378032    0.388338   -1.753032
     53          1           0       -1.970876    1.060948    2.623474
     54          1           0        0.210741   -2.481120    1.892587
     55          1           0       -0.235668   -2.293462    4.370692
     56          1           0       -1.698815    1.005994    5.409035
     57          1           0       -2.499230   -0.525531    5.667558
     58          1           0       -0.799153   -0.355525    6.033488
     59          1           0        4.675685   -1.911598    1.498755
     60          1           0        5.066859   -4.300563    0.488428
     61          1           0        3.535181   -5.127403    0.430281
     62          1           0        4.239406   -2.491992   -0.884247
     63          1           0        3.803226   -3.976880   -1.679921
     64          1           0        7.831249    3.669571   -1.751678
     65          1           0        4.632047    1.497721   -2.030001
     66          1           0        4.656533    3.182696   -1.622971
     67          1           0        4.965791    2.605982    0.787474
     68          1           0        4.936813    0.900001    0.374051
     69          1           0        2.768487    4.988147   -0.415146
     70          1           0        2.082894    4.907666    1.190018
     71          1           0        3.742317    4.429637    0.923804
     72          1           0        0.024830    4.426328    0.374761
     73          1           0        3.632090   -0.695595   -0.349658
     74          1           0        1.774824   -5.472259   -1.932603
     75          1           0        0.970039   -5.703891   -0.399066
     76          1           0        0.033751   -5.362426   -1.834278
     77          1           0       -1.547402   -4.198970   -1.301506
     78          1           0       -3.562544   -4.588943   -2.156561
     79          1           0       -4.273750   -4.721281   -0.566046
     80          1           0       -5.239415   -4.163532   -1.911212
     81          1           0       -5.172347    0.945500   -0.560328
     82          1           0       -5.503240    3.703601   -1.120996
     83          1           0       -5.769347    2.903891    0.409598
     84          1           0       -5.268235    4.577410    0.373760
     85          1           0       -1.412345    5.771383    0.486332
     86          1           0       -3.805138    6.716082   -0.474253
     87          1           0       -3.973086    6.379831    1.340528
     88          1           0       -6.662455   -1.061727   -0.284740
     89          1           0       -6.525360   -2.915459   -2.613443
     90          1           0       -7.594069   -1.401452   -2.594847
 ---------------------------------------------------------------------

 SCF Done:  E(UPBE1PBE) =  -3438.35018198     A.U. after   50 cycles

 Alpha virt. eigenvalues --    0.59970   0.60375   0.60697   0.60841   0.61293
 Alpha virt. eigenvalues --    0.61687   0.62087   0.62277   0.62770   0.62956
 Alpha virt. eigenvalues --    0.63274   0.63549   0.63758   0.63929   0.64185

  Beta  occ. eigenvalues -- -256.55318 -30.29733 -26.13097 -26.12924 -26.12123
  Beta  occ. eigenvalues --  -19.36175 -19.33367 -19.31847 -19.25798 -19.25137
  Beta  occ. eigenvalues --  -14.53398 -14.50589 -14.50263 -14.50254 -14.50172
  Beta  occ. eigenvalues --  -14.48119 -10.43978 -10.42937 -10.37129 -10.36691
  Beta  occ. eigenvalues --  -10.36411 -10.36360 -10.36309 -10.36289 -10.36184
  Beta  occ. eigenvalues --  -10.36001 -10.35950 -10.34954 -10.33496 -10.33414
  Beta  occ. eigenvalues --  -10.33406 -10.33348 -10.33326 -10.33240 -10.33239
  Beta  occ. eigenvalues --  -10.33219 -10.33022 -10.32877 -10.32797 -10.32743
  Beta  occ. eigenvalues --  -10.32640 -10.32623 -10.32442 -10.32344 -10.32305
  Beta  occ. eigenvalues --  -10.32297 -10.32116 -10.31010 -10.30992 -10.30669
  Beta  occ. eigenvalues --  -10.30649 -10.30110 -10.29979 -10.29539  -3.60337
  Beta  occ. eigenvalues --   -2.35879  -2.35789  -2.33607  -1.26339  -1.24188
  Beta  occ. eigenvalues --   -1.16008  -1.15498  -1.10335  -1.09773  -1.09356
  Beta  occ. eigenvalues --   -1.09209  -1.09170  -1.08222  -0.99699  -0.95155
  Beta  occ. eigenvalues --   -0.94267  -0.94157  -0.93218  -0.92721  -0.92262
  Beta  occ. eigenvalues --   -0.92026  -0.89976  -0.89250  -0.88759  -0.87259
  Beta  occ. eigenvalues --   -0.86657  -0.85986  -0.84271  -0.82917  -0.82326
  Beta  occ. eigenvalues --   -0.81675  -0.81113  -0.80116  -0.79298  -0.78944
  Beta  occ. eigenvalues --   -0.77367  -0.76690  -0.76154  -0.74804  -0.73295
  Beta  occ. eigenvalues --   -0.71196  -0.70958  -0.70503  -0.70296  -0.69768
  Beta  occ. eigenvalues --   -0.69422  -0.67122  -0.66064  -0.65394  -0.64932
  Beta  occ. eigenvalues --   -0.64507  -0.63515  -0.63373  -0.63215  -0.62215
  Beta  occ. eigenvalues --   -0.60899  -0.60653  -0.59489  -0.59327  -0.58646
  Beta  occ. eigenvalues --   -0.58191  -0.57901  -0.56982  -0.56890  -0.56728
  Beta  occ. eigenvalues --   -0.56414  -0.55664  -0.55508  -0.55363  -0.55076
  Beta  occ. eigenvalues --   -0.54939  -0.54485  -0.54387  -0.54010  -0.53763
  Beta  occ. eigenvalues --   -0.53525  -0.53344  -0.52732  -0.52669  -0.52453
  Beta  occ. eigenvalues --   -0.52402  -0.52019  -0.51985  -0.51806  -0.51573
  Beta  occ. eigenvalues --   -0.51436  -0.51362  -0.51188  -0.51113  -0.50497
  Beta  occ. eigenvalues --   -0.50224  -0.50009  -0.49978  -0.49737  -0.49691
  Beta  occ. eigenvalues --   -0.49256  -0.48922  -0.48729  -0.48688  -0.48265
  Beta  occ. eigenvalues --   -0.48012  -0.47518  -0.47023  -0.46835  -0.46597
  Beta  occ. eigenvalues --   -0.46076  -0.45688  -0.45008  -0.44575  -0.43941
  Beta  occ. eigenvalues --   -0.43704  -0.43529  -0.43115  -0.41814  -0.40360
  Beta  occ. eigenvalues --   -0.40297  -0.40125  -0.39773  -0.39440  -0.39122
  Beta  occ. eigenvalues --   -0.37215  -0.36846  -0.35945  -0.35728  -0.34984
  Beta  occ. eigenvalues --   -0.34336  -0.33472  -0.32320  -0.30621  -0.29987
  Beta virt. eigenvalues --   -0.21849  -0.21646  -0.19317  -0.17889  -0.17112
  Beta virt. eigenvalues --   -0.14786  -0.13759  -0.12774  -0.11823  -0.10111
  Beta virt. eigenvalues --   -0.09278  -0.08591  -0.08021  -0.06589  -0.06187

 Mulliken charges and spin densities:
               1          2
     1  C   -0.370146   0.001126
     2  C    0.142235   0.004992
     3  N   -0.205238   0.002754
     4  C   -0.182477  -0.000285
     5  C    0.034068   0.000024
     6  N   -0.229821   0.082971
     7  Fe  -0.188627   2.928093
     8  C   -0.460999  -0.065202
     9  C   -0.467967   0.017160
    10  C   -0.484725   0.089904
    11  C   -0.501917   0.001591
    12  N    0.028325  -0.060332
    13  C    0.328929   0.063051
    14  C    0.022158  -0.003924
    15  C   -0.032086   0.044569
    16  C    0.294996   0.001787
    17  C   -0.412880  -0.003256
    18  C   -0.434500  -0.000697
    19  C   -0.204092  -0.000259
    20  C    0.299828   0.000886
    21  O   -0.256531  -0.000048
    22  O   -0.413286  -0.000013
    23  N    0.038270  -0.033911
    24  C    0.252386   0.003140
    25  C   -0.064742  -0.002320
    26  C    0.001205   0.028794
    27  C    0.289979  -0.043379
    28  C   -0.359356  -0.000176
    29  C   -0.237097  -0.011728
    30  C   -0.238275   0.017011
    31  N    0.000380  -0.023763
    32  C    0.315993  -0.079066
    33  C   -0.123155   0.283436
    34  C   -0.023681  -0.141010
    35  C    0.304930   0.041809
    36  C   -0.363368  -0.013574
    37  C   -0.078171   0.703273
    38  C   -0.352914   1.003993
    39  N    0.024042  -0.073349
    40  C    0.318964   0.002586
    41  C   -0.099055   0.041415
    42  C    0.019900  -0.005864
    43  C    0.227593   0.062482
    44  C   -0.393210  -0.003287
    45  C   -0.329148  -0.001310
    46  C   -0.134236   0.000589
    47  C    0.257711   0.000096
    48  O   -0.342841   0.000016
    49  O   -0.364052   0.000202
    50  O   -0.452640   0.101153
    51  H    0.342338   0.006562
    52  H    0.226273  -0.032241
    53  H    0.147238   0.001369
    54  H    0.201288   0.000734
    55  H    0.252581   0.001402
    56  H    0.148225   0.000005
    57  H    0.155083   0.000104
    58  H    0.140915   0.000227
    59  H    0.338087  -0.000062
    60  H    0.155207   0.000064
    61  H    0.142677   0.000035
    62  H    0.167000  -0.000254
    63  H    0.152733   0.000226
    64  H    0.367982  -0.000002
    65  H    0.142032  -0.000024
    66  H    0.123083  -0.000052
    67  H    0.150333  -0.000154
    68  H    0.103341  -0.000088
    69  H    0.160296   0.002475
    70  H    0.145155   0.000860
    71  H    0.144463   0.000152
    72  H    0.102073   0.001377
    73  H    0.070536   0.002720
    74  H    0.147159   0.000632
    75  H    0.173469   0.002609
    76  H    0.137826   0.000448
    77  H    0.129420  -0.001105
    78  H    0.138950  -0.000025
    79  H    0.159896   0.000012
    80  H    0.124873  -0.000216
    81  H    0.140746  -0.003713
    82  H    0.160933   0.015162
    83  H    0.137367   0.009505
    84  H    0.153319  -0.001957
    85  H    0.139820   0.018072
    86  H    0.165614   0.006184
    87  H    0.164557   0.007699
    88  H    0.154550   0.000857
    89  H    0.136916  -0.000868
    90  H    0.154983  -0.000883
 Sum of Mulliken charges =   1.00000   5.00000

 Dipole moment (field-independent basis, Debye):
    X=             -1.6170    Y=              2.5351    Z=              1.4713  Tot=              3.3476
 Quadrupole moment (field-independent basis, Debye-Ang):
   XX=           -208.1027   YY=           -212.1210   ZZ=           -270.3341
   XY=             11.7408   XZ=             -2.0200   YZ=              7.3782

 Summary of Natural Population Analysis:

                                       Natural Population
                Natural  -----------------------------------------------
    Atom  No    Charge         Core      Valence    Rydberg      Total
 -----------------------------------------------------------------------
      C    1   -0.32078      0.99969     2.31791    0.00318     3.32078
      C    2    0.06161      0.99955     1.92978    0.00907     2.93839
      N    3   -0.23394      0.99968     2.72415    0.01011     3.73394
      C    4   -0.04867      0.99944     2.04024    0.00900     3.04867
      C    5    0.09571      0.99967     1.89493    0.00970     2.90429
      N    6   -0.15173      0.99967     2.63326    0.01881     3.65173
     Fe    7    1.70350      8.99056     2.28400    0.02194    11.29650
      C    8   -0.14251      0.99947     2.13427    0.00878     3.14251
      C    9   -0.10126      0.99948     2.09384    0.00793     3.10126
      C   10   -0.06894      0.99951     2.06217    0.00725     3.06894
      C   11   -0.11053      0.99951     2.10320    0.00783     3.11053
      N   12   -0.23085      0.99968     2.70928    0.02190     3.73085
      C   13    0.10917      0.99952     1.88055    0.01076     2.89083
      C   14   -0.01190      0.99947     2.00309    0.00934     3.01190
      C   15    0.02599      0.99944     1.96623    0.00834     2.97401
      C   16    0.07349      0.99947     1.91662    0.01042     2.92651
      C   17   -0.32142      0.99970     2.31563    0.00610     3.32142
      C   18   -0.21232      0.99964     2.20545    0.00724     3.21232
      C   19   -0.25238      0.99962     2.24465    0.00811     3.25238
      C   20    0.38248      0.99973     1.60094    0.01684     2.61752
      O   21   -0.30870      0.99980     3.29287    0.01603     4.30870
      O   22   -0.30626      0.99990     3.29531    0.01105     4.30626
      N   23   -0.20359      0.99966     2.68305    0.02087     3.70359
      C   24    0.08833      0.99955     1.90217    0.00995     2.91167
      C   25    0.00512      0.99941     1.98726    0.00821     2.99488
      C   26   -0.02071      0.99933     2.01084    0.01054     3.02071
      C   27    0.07611      0.99953     1.91405    0.01032     2.92389
      C   28   -0.31953      0.99970     2.31340    0.00644     3.31953
      C   29   -0.11097      0.99961     2.10205    0.00931     3.11097
      C   30   -0.15961      0.99964     2.15179    0.00819     3.15961
      N   31   -0.20387      0.99967     2.68328    0.02093     3.70387
      C   32    0.05018      0.99952     1.94050    0.00980     2.94982
      C   33    0.12443      0.99943     1.86807    0.00807     2.87557
      C   34   -0.08683      0.99939     2.07787    0.00957     3.08683
      C   35    0.11852      0.99953     1.87194    0.01002     2.88148
      C   36   -0.32049      0.99969     2.31477    0.00603     3.32049
      C   37    0.25923      0.99961     1.73357    0.00759     2.74077
      C   38    0.30274      0.99964     1.69005    0.00756     2.69726
      N   39   -0.23297      0.99967     2.71193    0.02137     3.73297
      C   40    0.08566      0.99950     1.90457    0.01027     2.91434
      C   41    0.01674      0.99945     1.97567    0.00813     2.98326
      C   42   -0.00371      0.99947     1.99519    0.00906     3.00371
      C   43    0.10008      0.99949     1.88983    0.01059     2.89992
      C   44   -0.32246      0.99970     2.31655    0.00621     3.32246
      C   45   -0.20699      0.99966     2.20086    0.00647     3.20699
      C   46   -0.24304      0.99961     2.23506    0.00837     3.24304
      C   47    0.37614      0.99974     1.60618    0.01794     2.62386
      O   48   -0.33528      0.99980     3.32135    0.01413     4.33528
      O   49   -0.29159      0.99990     3.28020    0.01149     4.29159
      O   50   -0.32274      0.99993     3.31612    0.00669     4.32274
      H   51    0.24842      0.00000     0.25015    0.00143     0.25158
      H   52    0.17388      0.00000     0.32266    0.00346     0.32612
      H   53    0.11365      0.00000     0.38572    0.00063     0.38635
      H   54    0.11863      0.00000     0.38041    0.00097     0.38137
      H   55    0.21480      0.00000     0.28438    0.00082     0.28520
      H   56    0.11858      0.00000     0.38093    0.00049     0.38142
      H   57    0.11571      0.00000     0.38364    0.00065     0.38429
      H   58    0.11327      0.00000     0.38610    0.00063     0.38673
      H   59    0.25037      0.00000     0.24868    0.00095     0.24963
      H   60    0.11466      0.00000     0.38465    0.00069     0.38534
      H   61    0.12279      0.00000     0.37655    0.00066     0.37721
      H   62    0.10445      0.00000     0.39476    0.00079     0.39555
      H   63    0.12195      0.00000     0.37723    0.00082     0.37805
      H   64    0.26303      0.00000     0.23583    0.00114     0.23697
      H   65    0.11993      0.00000     0.37943    0.00064     0.38007
      H   66    0.11198      0.00000     0.38731    0.00071     0.38802
      H   67    0.11617      0.00000     0.38300    0.00083     0.38383
      H   68    0.10623      0.00000     0.39292    0.00085     0.39377
      H   69    0.11770      0.00000     0.38163    0.00067     0.38230
      H   70    0.11539      0.00000     0.38404    0.00056     0.38461
      H   71    0.11472      0.00000     0.38466    0.00062     0.38528
      H   72    0.11024      0.00000     0.38849    0.00126     0.38976
      H   73    0.10512      0.00000     0.39314    0.00174     0.39488
      H   74    0.11523      0.00000     0.38417    0.00060     0.38477
      H   75    0.12163      0.00000     0.37769    0.00068     0.37837
      H   76    0.11228      0.00000     0.38724    0.00048     0.38772
      H   77    0.11452      0.00000     0.38415    0.00133     0.38548
      H   78    0.11307      0.00000     0.38640    0.00054     0.38693
      H   79    0.11818      0.00000     0.38118    0.00064     0.38182
      H   80    0.11402      0.00000     0.38538    0.00060     0.38598
      H   81    0.11495      0.00000     0.38370    0.00135     0.38505
      H   82    0.12459      0.00000     0.37484    0.00056     0.37541
      H   83    0.11708      0.00000     0.38241    0.00050     0.38292
      H   84    0.11835      0.00000     0.38115    0.00050     0.38165
      H   85    0.12037      0.00000     0.37909    0.00055     0.37963
      H   86    0.11102      0.00000     0.38847    0.00052     0.38898
      H   87    0.10970      0.00000     0.38978    0.00053     0.39030
      H   88    0.11100      0.00000     0.38811    0.00089     0.38900
      H   89    0.09682      0.00000     0.40213    0.00105     0.40318
      H   90    0.10688      0.00000     0.39239    0.00073     0.39312
 =======================================================================
   * Total *    3.00000     57.97101   126.46112    0.56787   185.00000

 Normal termination of Gaussian 16 at Tue Nov 15 11:16:41 2022.
