 Gaussian 16, Revision A.03,
 Gaussian 16:  ES64L-G16RevA.03 25-Dec-2016

 ----------------------------------------------------------------------
 # PBE1PBE/def2TZVP empiricaldispersion=GD3BJ scf=maxcycle=999 geom=che
 ck pop=nbo
 ----------------------------------------------------------------------

 ----------
 2gsm_III_D
 ----------
 Structure from the checkpoint file:  "2gsm_III_D.chk"
 Charge =  1 Multiplicity = 2

                         Standard orientation:
 ---------------------------------------------------------------------
 Center     Atomic      Atomic             Coordinates (Angstroms)
 Number     Number       Type             X           Y           Z
 ---------------------------------------------------------------------
      1          6           0       -0.484073   -0.887374    5.091567
      2          6           0        0.336697   -0.781941    3.830978
      3          7           0        1.677180   -1.103268    3.790683
      4          6           0        0.016619   -0.359343    2.579353
      5          6           0        2.149586   -0.882227    2.571856
      6          7           0        1.159835   -0.438291    1.812783
      7         26           0        0.974377   -0.010954   -0.243987
      8          6           0       -2.481787   -0.043760   -0.173503
      9          6           0        0.994501   -3.405448   -0.947618
     10          6           0        4.404886    0.063964   -0.693949
     11          6           0        0.944276    3.409136    0.005987
     12          7           0       -0.491197   -1.485253   -0.505078
     13          6           0       -1.855518   -1.242786   -0.494225
     14          6           0       -2.505525   -2.484873   -0.848488
     15          6           0       -1.554242   -3.414153   -1.072982
     16          6           0       -0.257906   -2.805091   -0.849274
     17          6           0       -1.820921   -4.846180   -1.492801
     18          6           0       -4.022502   -2.708520   -0.968752
     19          6           0       -4.598704   -3.129892    0.382473
     20          6           0       -6.111217   -3.098664    0.319178
     21          8           0       -6.743707   -4.108768    0.723992
     22          8           0       -6.702290   -2.073983   -0.132184
     23          7           0        2.466970   -1.440441   -0.779016
     24          6           0        2.244638   -2.794435   -0.913679
     25          6           0        3.555984   -3.425778   -1.011566
     26          6           0        4.495811   -2.467895   -0.949943
     27          6           0        3.820158   -1.180126   -0.795191
     28          6           0        3.826057   -4.935884   -1.161370
     29          7           0        2.413041    1.468102   -0.323802
     30          6           0        3.766960    1.281728   -0.527442
     31          6           0        4.403287    2.580486   -0.525571
     32          6           0        3.454160    3.520970   -0.320641
     33          6           0        2.174004    2.835371   -0.187367
     34          6           0        5.906364    2.814711   -0.744865
     35          6           0        3.658948    5.040420   -0.256812
     36          6           0        4.843300    5.563744    0.062257
     37          7           0       -0.526095    1.433201   -0.082061
     38          6           0       -0.305334    2.790365   -0.039597
     39          6           0       -1.612054    3.435314   -0.023057
     40          6           0       -2.551164    2.480890   -0.069431
     41          6           0       -1.880074    1.193226   -0.109880
     42          6           0       -1.843228    4.962158    0.023728
     43          6           0       -4.071936    2.634934   -0.040395
     44          6           0       -4.737706    3.160893   -1.309317
     45          6           0       -6.178493    3.393272   -0.877250
     46          8           0       -7.002076    2.444447   -0.922654
     47          8           0       -6.490628    4.531843   -0.470296
     48          6           0        6.019037   -2.677899   -1.126936
     49          6           0        6.728159   -2.758400    0.236239
     50          1           0        6.294479   -3.544776    0.817990
     51          1           0        7.768537   -2.958123    0.085830
     52          1           0        6.614579   -1.828280    0.752840
     53          1           0        6.187815   -3.587454   -1.664637
     54          1           0        6.423621   -1.859685   -1.685271
     55          1           0        3.324060   -5.303353   -2.031924
     56          1           0        4.878502   -5.101947   -1.259776
     57          1           0        3.463093   -5.450652   -0.296401
     58          1           0        0.996128   -4.469125   -1.063761
     59          1           0       -2.452105   -4.852916   -2.356781
     60          1           0       -0.894247   -5.328445   -1.724311
     61          1           0       -2.304641   -5.367953   -0.693634
     62          1           0       -4.272028   -4.121755    0.615690
     63          1           0       -4.259591   -2.455317    1.140663
     64          1           0       -4.211732   -3.476047   -1.689858
     65          1           0       -4.490775   -1.800340   -1.286290
     66          1           0       -7.596229   -4.326849    0.340264
     67          1           0       -3.528570   -0.086021    0.044119
     68          1           0       -4.495189    1.677274    0.180163
     69          1           0       -4.319768    3.299680    0.760599
     70          1           0       -2.891842    5.162046    0.096901
     71          1           0       -1.341589    5.372925    0.874921
     72          1           0       -1.456359    5.408961   -0.868236
     73          1           0       -4.691030    2.430941   -2.090274
     74          1           0       -4.284407    4.078784   -1.620599
     75          1           0       -7.805832    2.530871   -1.440444
     76          1           0        0.942477    4.458047    0.217368
     77          1           0        6.057443    3.307863   -1.682350
     78          1           0        6.291245    3.424996    0.045274
     79          1           0        6.416828    1.874340   -0.750190
     80          1           0        5.473028    0.091954   -0.750431
     81          1           0        4.735285    6.615044    0.229594
     82          1           0        5.211484    5.096958    0.951893
     83          1           0        5.533419    5.399129   -0.738704
     84          1           0        3.394489    5.430924   -1.217264
     85          1           0        2.950129    5.420830    0.448712
     86          1           0       -1.310842   -1.545823    4.924835
     87          1           0        0.124904   -1.272708    5.882493
     88          1           0       -0.848684    0.081594    5.361861
     89          1           0        2.210813   -1.449724    4.562178
     90          1           0        3.159930   -1.036518    2.255155
     91          1           0       -0.945443   -0.026664    2.249715
 ---------------------------------------------------------------------

 SCF Done:  E(UPBE1PBE) =  -3364.55943988     A.U. after  102 cycles

 Alpha virt. eigenvalues --    0.55596   0.55626   0.55925   0.56241   0.56456
 Alpha virt. eigenvalues --    0.56838   0.57299   0.57390   0.57678   0.57758
 Alpha virt. eigenvalues --    0.58073   0.58499   0.58610   0.58756   0.58913

  Beta  occ. eigenvalues -- -256.53671 -30.29568 -26.12980 -26.12223 -26.11705
  Beta  occ. eigenvalues --  -19.33787 -19.31717 -19.25011 -19.24136 -14.56533
  Beta  occ. eigenvalues --  -14.52941 -14.50232 -14.50216 -14.50125 -14.50042
  Beta  occ. eigenvalues --  -10.42936 -10.41610 -10.40602 -10.37689 -10.36324
  Beta  occ. eigenvalues --  -10.36322 -10.36319 -10.36297 -10.36295 -10.36277
  Beta  occ. eigenvalues --  -10.36227 -10.36095 -10.35265 -10.33481 -10.33324
  Beta  occ. eigenvalues --  -10.33188 -10.33031 -10.32684 -10.32681 -10.32534
  Beta  occ. eigenvalues --  -10.32520 -10.32517 -10.32350 -10.32343 -10.32183
  Beta  occ. eigenvalues --  -10.32154 -10.31541 -10.31431 -10.31115 -10.31069
  Beta  occ. eigenvalues --  -10.30289 -10.30250 -10.30249 -10.30042 -10.29817
  Beta  occ. eigenvalues --  -10.29150 -10.28758 -10.26659  -3.62094  -2.38531
  Beta  occ. eigenvalues --   -2.37201  -2.35619  -1.23904  -1.22496  -1.18489
  Beta  occ. eigenvalues --   -1.09132  -1.08970  -1.08725  -1.08364  -1.08017
  Beta  occ. eigenvalues --   -1.07256  -1.03248  -0.94638  -0.94072  -0.93057
  Beta  occ. eigenvalues --   -0.92682  -0.92318  -0.92098  -0.92001  -0.91450
  Beta  occ. eigenvalues --   -0.88798  -0.88335  -0.87884  -0.86810  -0.86538
  Beta  occ. eigenvalues --   -0.84169  -0.83522  -0.81994  -0.81377  -0.80957
  Beta  occ. eigenvalues --   -0.79522  -0.78742  -0.77289  -0.76748  -0.76702
  Beta  occ. eigenvalues --   -0.76369  -0.73913  -0.73455  -0.72944  -0.72666
  Beta  occ. eigenvalues --   -0.71987  -0.70181  -0.69477  -0.68225  -0.66013
  Beta  occ. eigenvalues --   -0.65464  -0.65201  -0.63958  -0.63308  -0.62990
  Beta  occ. eigenvalues --   -0.62408  -0.60521  -0.60058  -0.59497  -0.59356
  Beta  occ. eigenvalues --   -0.59124  -0.58669  -0.58293  -0.58260  -0.57989
  Beta  occ. eigenvalues --   -0.57573  -0.56966  -0.56500  -0.56257  -0.55977
  Beta  occ. eigenvalues --   -0.55602  -0.55184  -0.54868  -0.54535  -0.54372
  Beta  occ. eigenvalues --   -0.54219  -0.53933  -0.53599  -0.53405  -0.53025
  Beta  occ. eigenvalues --   -0.52931  -0.52754  -0.52543  -0.52458  -0.51929
  Beta  occ. eigenvalues --   -0.51674  -0.51267  -0.51042  -0.50829  -0.50627
  Beta  occ. eigenvalues --   -0.50490  -0.50382  -0.49903  -0.49671  -0.49375
  Beta  occ. eigenvalues --   -0.48689  -0.48503  -0.48421  -0.47987  -0.47795
  Beta  occ. eigenvalues --   -0.47388  -0.47170  -0.46857  -0.46743  -0.46587
  Beta  occ. eigenvalues --   -0.46056  -0.45440  -0.45181  -0.44873  -0.44300
  Beta  occ. eigenvalues --   -0.43879  -0.43833  -0.43687  -0.43389  -0.43022
  Beta  occ. eigenvalues --   -0.42478  -0.41926  -0.41413  -0.41223  -0.40859
  Beta  occ. eigenvalues --   -0.40143  -0.39422  -0.39262  -0.38892  -0.38644
  Beta  occ. eigenvalues --   -0.36057  -0.35437  -0.35158  -0.34811  -0.34227
  Beta  occ. eigenvalues --   -0.33961  -0.33587  -0.31156  -0.29744
  Beta virt. eigenvalues --   -0.20157  -0.18393  -0.18105  -0.16938  -0.15730
  Beta virt. eigenvalues --   -0.11354  -0.09330  -0.07688  -0.07302  -0.06837
  Beta virt. eigenvalues --   -0.06691  -0.06171  -0.05284  -0.04881  -0.04213

 Mulliken charges and spin densities:
               1          2
     1  C   -0.341842  -0.001000
     2  C    0.098791  -0.003113
     3  N   -0.201313   0.002013
     4  C   -0.143184   0.003576
     5  C    0.039166   0.014642
     6  N   -0.037237  -0.093970
     7  Fe   0.085325   1.316955
     8  C   -0.537601  -0.021227
     9  C   -0.518747  -0.027468
    10  C   -0.522107  -0.028243
    11  C   -0.450995  -0.032087
    12  N   -0.087061  -0.069953
    13  C    0.254177   0.013997
    14  C    0.033649  -0.001196
    15  C   -0.081973   0.012480
    16  C    0.351569   0.012575
    17  C   -0.381220  -0.000678
    18  C   -0.307012  -0.001220
    19  C   -0.170588   0.000060
    20  C    0.275792  -0.000007
    21  O   -0.323920   0.000001
    22  O   -0.388824  -0.000012
    23  N   -0.124503  -0.073027
    24  C    0.262313   0.011881
    25  C   -0.065198   0.009857
    26  C    0.006876  -0.003577
    27  C    0.218916   0.017123
    28  C   -0.375517  -0.000825
    29  N   -0.076422  -0.073526
    30  C    0.333021   0.016267
    31  C   -0.042496  -0.001139
    32  C   -0.076035   0.014141
    33  C    0.310944   0.014060
    34  C   -0.390580  -0.000946
    35  C   -0.162993  -0.001057
    36  C   -0.400832  -0.000008
    37  N   -0.107833  -0.065263
    38  C    0.286064   0.013657
    39  C   -0.084439   0.011544
    40  C    0.105148  -0.002249
    41  C    0.288381   0.013159
    42  C   -0.401288  -0.000699
    43  C   -0.491169  -0.001258
    44  C   -0.115033   0.000213
    45  C    0.262261   0.000019
    46  O   -0.339624   0.000003
    47  O   -0.346707  -0.000051
    48  C   -0.249420  -0.000642
    49  C   -0.365355  -0.000095
    50  H    0.125672   0.000010
    51  H    0.142882  -0.000098
    52  H    0.115856   0.000008
    53  H    0.130313  -0.000101
    54  H    0.121365  -0.000051
    55  H    0.148774   0.000402
    56  H    0.134510  -0.000088
    57  H    0.145383   0.000479
    58  H    0.140228   0.001211
    59  H    0.154234   0.000434
    60  H    0.130717  -0.000040
    61  H    0.146275   0.000498
    62  H    0.125116  -0.000011
    63  H    0.133649  -0.000033
    64  H    0.132121  -0.000092
    65  H    0.159680   0.000026
    66  H    0.358533  -0.000003
    67  H    0.169708   0.001115
    68  H    0.137531  -0.000029
    69  H    0.162761  -0.000171
    70  H    0.165815  -0.000092
    71  H    0.142293   0.000431
    72  H    0.157054   0.000490
    73  H    0.115251  -0.000047
    74  H    0.137491  -0.000013
    75  H    0.364360   0.000001
    76  H    0.145384   0.001436
    77  H    0.163438   0.000176
    78  H    0.161480  -0.000175
    79  H    0.127948  -0.000046
    80  H    0.120802   0.001503
    81  H    0.141642  -0.000028
    82  H    0.119459   0.000070
    83  H    0.131927   0.000003
    84  H    0.122980   0.000861
    85  H    0.101389   0.000312
    86  H    0.158632   0.000044
    87  H    0.131480  -0.000157
    88  H    0.163149   0.000064
    89  H    0.251967  -0.001069
    90  H    0.186261  -0.000896
    91  H    0.171164  -0.000023
 Sum of Mulliken charges =   1.00000   1.00000

 Dipole moment (field-independent basis, Debye):
    X=              6.1183    Y=             -5.8566    Z=              4.4307  Tot=              9.5585
 Quadrupole moment (field-independent basis, Debye-Ang):
   XX=           -206.3446   YY=           -227.4808   ZZ=           -247.5198
   XY=             30.9441   XZ=             17.6553   YZ=             -7.8276

 Summary of Natural Population Analysis:

                                       Natural Population
                Natural  -----------------------------------------------
    Atom  No    Charge         Core      Valence    Rydberg      Total
 -----------------------------------------------------------------------
      C    1   -0.32130      0.99969     2.31841    0.00319     3.32130
      C    2    0.06156      0.99956     1.92976    0.00912     2.93844
      N    3   -0.23208      0.99968     2.72233    0.01007     3.73208
      C    4   -0.03676      0.99946     2.02796    0.00934     3.03676
      C    5    0.10864      0.99969     1.88164    0.01003     2.89136
      N    6   -0.24102      0.99971     2.71938    0.02192     3.74102
     Fe    7    1.06657      8.99609     2.92342    0.01391    11.93343
      C    8   -0.12535      0.99948     2.11746    0.00841     3.12535
      C    9   -0.11556      0.99950     2.10815    0.00790     3.11556
      C   10   -0.12728      0.99948     2.11949    0.00830     3.12728
      C   11   -0.12053      0.99949     2.11305    0.00800     3.12053
      N   12   -0.25042      0.99968     2.72911    0.02162     3.75042
      C   13    0.08425      0.99953     1.90607    0.01015     2.91575
      C   14   -0.00932      0.99940     2.00066    0.00927     3.00932
      C   15    0.00099      0.99941     1.99141    0.00818     2.99901
      C   16    0.07926      0.99954     1.91078    0.01042     2.92074
      C   17   -0.31973      0.99970     2.31393    0.00610     3.31973
      C   18   -0.20957      0.99967     2.20305    0.00685     3.20957
      C   19   -0.24751      0.99963     2.23956    0.00832     3.24751
      C   20    0.38210      0.99977     1.60046    0.01767     2.61790
      O   21   -0.32321      0.99981     3.31004    0.01336     4.32321
      O   22   -0.30772      0.99990     3.29622    0.01159     4.30772
      N   23   -0.25135      0.99968     2.72938    0.02230     3.75135
      C   24    0.07759      0.99954     1.91255    0.01031     2.92241
      C   25   -0.00009      0.99939     1.99254    0.00817     3.00009
      C   26   -0.01005      0.99939     2.00081    0.00984     3.01005
      C   27    0.08426      0.99953     1.90565    0.01056     2.91574
      C   28   -0.31927      0.99969     2.31598    0.00359     3.31927
      N   29   -0.24988      0.99969     2.72813    0.02206     3.74988
      C   30    0.08821      0.99953     1.90149    0.01078     2.91179
      C   31   -0.00825      0.99941     2.00082    0.00803     3.00825
      C   32    0.00774      0.99941     1.98394    0.00891     2.99226
      C   33    0.08405      0.99952     1.90652    0.00991     2.91595
      C   34   -0.31828      0.99969     2.31476    0.00383     3.31828
      C   35   -0.21068      0.99954     2.20313    0.00802     3.21068
      C   36   -0.29687      0.99959     2.28901    0.00827     3.29687
      N   37   -0.25059      0.99967     2.72877    0.02214     3.75059
      C   38    0.08396      0.99955     1.90636    0.01013     2.91604
      C   39    0.00444      0.99938     1.98820    0.00798     2.99556
      C   40   -0.01040      0.99939     2.00129    0.00972     3.01040
      C   41    0.08345      0.99953     1.90659    0.01044     2.91655
      C   42   -0.32109      0.99969     2.31775    0.00364     3.32109
      C   43   -0.21130      0.99965     2.20521    0.00644     3.21130
      C   44   -0.24528      0.99963     2.23705    0.00860     3.24528
      C   45    0.38368      0.99977     1.59784    0.01870     2.61632
      O   46   -0.33932      0.99980     3.32536    0.01416     4.33932
      O   47   -0.28887      0.99989     3.27688    0.01210     4.28887
      C   48   -0.20969      0.99969     2.20351    0.00649     3.20969
      C   49   -0.29813      0.99972     2.29562    0.00280     3.29813
      H   50    0.10346      0.00000     0.39587    0.00067     0.39654
      H   51    0.10925      0.00000     0.39015    0.00060     0.39075
      H   52    0.10035      0.00000     0.39895    0.00070     0.39965
      H   53    0.10995      0.00000     0.38922    0.00082     0.39005
      H   54    0.10877      0.00000     0.39050    0.00073     0.39123
      H   55    0.11450      0.00000     0.38480    0.00070     0.38550
      H   56    0.11290      0.00000     0.38632    0.00078     0.38710
      H   57    0.11342      0.00000     0.38591    0.00067     0.38658
      H   58    0.11525      0.00000     0.38360    0.00115     0.38475
      H   59    0.11652      0.00000     0.38280    0.00067     0.38348
      H   60    0.11124      0.00000     0.38832    0.00044     0.38876
      H   61    0.11413      0.00000     0.38512    0.00074     0.38587
      H   62    0.11115      0.00000     0.38808    0.00077     0.38885
      H   63    0.11743      0.00000     0.38196    0.00061     0.38257
      H   64    0.11217      0.00000     0.38710    0.00073     0.38783
      H   65    0.12239      0.00000     0.37674    0.00086     0.37761
      H   66    0.25937      0.00000     0.23932    0.00131     0.24063
      H   67    0.11932      0.00000     0.37948    0.00119     0.38068
      H   68    0.10909      0.00000     0.39001    0.00090     0.39091
      H   69    0.11829      0.00000     0.38086    0.00085     0.38171
      H   70    0.11762      0.00000     0.38165    0.00073     0.38238
      H   71    0.11343      0.00000     0.38592    0.00065     0.38657
      H   72    0.11561      0.00000     0.38373    0.00066     0.38439
      H   73    0.11041      0.00000     0.38883    0.00076     0.38959
      H   74    0.11866      0.00000     0.38070    0.00064     0.38134
      H   75    0.26272      0.00000     0.23614    0.00114     0.23728
      H   76    0.11791      0.00000     0.38098    0.00111     0.38209
      H   77    0.11566      0.00000     0.38362    0.00072     0.38434
      H   78    0.11718      0.00000     0.38208    0.00074     0.38282
      H   79    0.10729      0.00000     0.39213    0.00058     0.39271
      H   80    0.11504      0.00000     0.38350    0.00146     0.38496
      H   81    0.11357      0.00000     0.38585    0.00058     0.38643
      H   82    0.10086      0.00000     0.39832    0.00082     0.39914
      H   83    0.10306      0.00000     0.39621    0.00074     0.39694
      H   84    0.10981      0.00000     0.38899    0.00120     0.39019
      H   85    0.10380      0.00000     0.39523    0.00097     0.39620
      H   86    0.12026      0.00000     0.37920    0.00054     0.37974
      H   87    0.11234      0.00000     0.38710    0.00056     0.38766
      H   88    0.12120      0.00000     0.37825    0.00055     0.37880
      H   89    0.21433      0.00000     0.28488    0.00078     0.28567
      H   90    0.11549      0.00000     0.38355    0.00096     0.38451
      H   91    0.12082      0.00000     0.37834    0.00084     0.37918
 =======================================================================
   * Total *    1.00000     56.97685   126.47785    0.54529   184.00000

 Normal termination of Gaussian 16 at Fri Jan 20 22:34:48 2023.
