 Gaussian 16, Revision A.03,

 ----------------------------------------------------------------------
 # PBE1PBE/def2TZVP empiricaldispersion=GD3BJ int=(grid=ultrafine) geom
 =check guess=read pop=nbo
 ----------------------------------------------------------------------

 -------------
 7abb_II_S_nbo
 -------------
 Structure from the checkpoint file:  "7abb_II_S.chk"
 Charge =  0 Multiplicity = 1

 SCF Done:  E(RPBE1PBE) =  -3537.49373483     A.U. after    1 cycles

 Summary of Natural Population Analysis:

                                       Natural Population
                Natural  -----------------------------------------------
    Atom  No    Charge         Core      Valence    Rydberg      Total
 -----------------------------------------------------------------------
      C    1   -0.70091      1.99922     4.68376    0.01793     6.70091
      S    2    0.24533      9.99803     5.71306    0.04358    15.75467
      H    3    0.26353      0.00000     0.73502    0.00144     0.73647
      H    4    0.22889      0.00000     0.77010    0.00100     0.77111
     Fe    5    0.32006     17.97485     7.67854    0.02655    25.67994
      C    6   -0.22507      1.99893     4.20818    0.01796     6.22507
      C    7   -0.21913      1.99902     4.20737    0.01273     6.21913
      C    8   -0.23863      1.99899     4.22322    0.01642     6.23863
      C    9   -0.22191      1.99896     4.20618    0.01677     6.22191
      N   10   -0.46542      1.99937     5.42679    0.03926     7.46542
      C   11    0.14107      1.99907     3.83953    0.02033     5.85893
      C   12   -0.04398      1.99867     4.02664    0.01867     6.04398
      C   13   -0.02353      1.99876     4.00845    0.01631     6.02353
      C   14    0.12696      1.99911     3.85212    0.02182     5.87304
      C   15   -0.61430      1.99918     4.60842    0.00670     6.61430
      C   16   -0.38063      1.99903     4.36929    0.01232     6.38063
      C   17   -0.48573      1.99901     4.47143    0.01529     6.48573
      C   18    0.77506      1.99958     3.18944    0.03592     5.22494
      O   19   -0.67431      1.99960     6.64625    0.02846     8.67431
      O   20   -0.58588      1.99979     6.56249    0.02360     8.58588
      N   21   -0.43067      1.99936     5.38826    0.04304     7.43067
      C   22    0.15724      1.99909     3.82178    0.02189     5.84276
      C   23   -0.02640      1.99875     4.01040    0.01724     6.02640
      C   24   -0.03802      1.99883     4.02106    0.01813     6.03802
      C   25    0.14655      1.99907     3.83453    0.01985     5.85345
      C   26   -0.60129      1.99914     4.59520    0.00695     6.60129
      C   27   -0.40536      1.99939     4.39313    0.01284     6.40536
      C   28   -0.57748      1.99924     4.57277    0.00548     6.57748
      N   29   -0.30477      1.99895     5.27373    0.03209     7.30477
      C   30    0.11773      1.99906     3.86145    0.02176     5.88227
      C   31   -0.01334      1.99882     3.99809    0.01643     6.01334
      C   32   -0.02419      1.99883     4.00810    0.01726     6.02419
      C   33    0.12476      1.99907     3.85474    0.02143     5.87524
      C   34   -0.60529      1.99914     4.59898    0.00717     6.60529
      C   35   -0.41626      1.99937     4.40667    0.01022     6.41626
      C   36   -0.58319      1.99919     4.57765    0.00634     6.58319
      N   37   -0.45321      1.99940     5.41162    0.04219     7.45321
      C   38    0.11508      1.99898     3.86648    0.01947     5.88492
      C   39    0.00560      1.99913     3.97931    0.01596     5.99440
      C   40   -0.03117      1.99914     4.01474    0.01729     6.03117
      C   41    0.13960      1.99898     3.84084    0.02058     5.86040
      C   42   -0.61827      1.99917     4.61277    0.00633     6.61827
      C   43   -0.40270      1.99910     4.39199    0.01160     6.40270
      C   44   -0.48042      1.99904     4.46568    0.01570     6.48042
      C   45    0.77386      1.99957     3.18961    0.03696     5.22614
      O   46   -0.56100      1.99978     6.53755    0.02367     8.56100
      O   47   -0.69269      1.99957     6.66321    0.02990     8.69269
      H   48    0.19567      0.00000     0.80229    0.00204     0.80433
      H   49    0.19925      0.00000     0.79804    0.00271     0.80075
      H   50    0.20650      0.00000     0.78955    0.00395     0.79350
      H   51    0.20525      0.00000     0.79089    0.00387     0.79475
      H   52    0.20974      0.00000     0.78878    0.00149     0.79026
      H   53    0.20669      0.00000     0.79199    0.00133     0.79331
      H   54    0.20906      0.00000     0.78947    0.00147     0.79094
      H   55    0.21313      0.00000     0.78470    0.00217     0.78687
      H   56    0.20317      0.00000     0.79477    0.00206     0.79683
      H   57    0.21709      0.00000     0.78155    0.00137     0.78291
      H   58    0.21750      0.00000     0.78116    0.00133     0.78250
      H   59    0.20693      0.00000     0.79155    0.00152     0.79307
      H   60    0.20879      0.00000     0.78969    0.00152     0.79121
      H   61    0.20086      0.00000     0.79800    0.00115     0.79914
      H   62    0.21068      0.00000     0.78746    0.00186     0.78932
      H   63    0.19556      0.00000     0.80301    0.00142     0.80444
      H   64    0.19965      0.00000     0.79915    0.00120     0.80035
      H   65    0.19538      0.00000     0.80319    0.00142     0.80462
      H   66    0.21160      0.00000     0.78697    0.00143     0.78840
      H   67    0.20808      0.00000     0.79043    0.00148     0.79192
      H   68    0.20343      0.00000     0.79540    0.00116     0.79657
      H   69    0.21124      0.00000     0.78705    0.00171     0.78876
      H   70    0.20144      0.00000     0.79750    0.00106     0.79856
      H   71    0.19962      0.00000     0.79888    0.00150     0.80038
      H   72    0.20063      0.00000     0.79827    0.00110     0.79937
      H   73    0.21019      0.00000     0.78833    0.00148     0.78981
      H   74    0.20325      0.00000     0.79557    0.00119     0.79675
      H   75    0.21180      0.00000     0.78677    0.00142     0.78820
      H   76    0.20705      0.00000     0.79089    0.00206     0.79295
      H   77    0.19716      0.00000     0.80012    0.00271     0.80284
      H   78    0.22091      0.00000     0.77783    0.00127     0.77909
      H   79    0.22356      0.00000     0.77510    0.00134     0.77644
      H   80    0.51720      0.00000     0.48013    0.00267     0.48280
      H   81    0.51969      0.00000     0.47785    0.00245     0.48031
      H   82    0.21448      0.00000     0.78366    0.00186     0.78552
      H   83    0.20420      0.00000     0.79405    0.00175     0.79580
      H   84    0.22616      0.00000     0.77258    0.00126     0.77384
      H   85    0.17120      0.00000     0.82221    0.00659     0.82880
 =======================================================================
   * Total *   -0.00000    113.93634   237.08146    0.98220   352.00000

 Normal termination of Gaussian 16 at Sun Sep 11 20:49:57 2022.
 Gaussian 16:  ES64L-G16RevA.03 25-Dec-2016

 ----------------------------------------------------------------------
 # PBE1PBE/def2TZVP empiricaldispersion=GD3BJ int=(grid=ultrafine) geom
 =check guess=read scrf=(smd,solvent=Chloroform)
 ----------------------------------------------------------------------

 --------------
 7abb_II_S_solv
 --------------
 Structure from the checkpoint file:  "7abb_II_S.chk"
 Charge =  0 Multiplicity = 1

                         Standard orientation:
 ---------------------------------------------------------------------
 Center     Atomic      Atomic             Coordinates (Angstroms)
 Number     Number       Type             X           Y           Z
 ---------------------------------------------------------------------
      1          6           0       -0.046732   -0.771680    2.872277
      2         16           0       -1.374019    0.097309    2.012425
      3          1           0        0.289432   -1.591873    2.272962
      4          1           0       -0.409708   -1.139714    3.809134
      5         26           0       -1.393013    0.175637   -0.156078
      6          6           0        2.469015    0.105011   -0.134809
      7          6           0       -0.702768   -3.508412   -0.127255
      8          6           0       -4.387103   -0.315051   -0.256680
      9          6           0       -1.204393    3.271073   -0.679160
     10          7           0        0.560297   -1.411816   -0.163794
     11          6           0        1.927066   -1.144679   -0.084506
     12          6           0        2.700368   -2.363466    0.036107
     13          6           0        1.793213   -3.356639    0.047244
     14          6           0        0.473821   -2.787405   -0.078344
     15          6           0        2.051625   -4.871381    0.137036
     16          6           0        4.260308   -2.483431    0.174182
     17          6           0        4.996020   -2.558529   -1.157418
     18          6           0        6.485577   -2.727630   -0.910710
     19          8           0        7.202252   -2.678361   -1.936702
     20          8           0        6.886589   -2.901902    0.269841
     21          7           0       -2.285205   -1.608310   -0.252991
     22          6           0       -1.981957   -2.954429   -0.161782
     23          6           0       -3.220073   -3.670605   -0.089486
     24          6           0       -4.232574   -2.784444   -0.100024
     25          6           0       -3.671135   -1.484246   -0.227574
     26          6           0       -3.243681   -5.207673    0.028720
     27          6           0       -5.732514   -2.927017   -0.069017
     28          6           0       -6.267946   -4.256441    0.354683
     29          7           0       -2.490748    1.233963   -0.461067
     30          6           0       -3.829611    0.936224   -0.349303
     31          6           0       -4.584944    2.160107   -0.379665
     32          6           0       -3.713975    3.188509   -0.490274
     33          6           0       -2.395456    2.602370   -0.561507
     34          6           0       -6.109437    2.217437   -0.264343
     35          6           0       -3.945168    4.704736   -0.600992
     36          6           0       -5.269714    5.302264   -0.126744
     37          7           0        0.373989    1.374724   -0.399832
     38          6           0        0.030492    2.714569   -0.580823
     39          6           0        1.239206    3.475123   -0.631299
     40          6           0        2.381195    2.534373   -0.472415
     41          6           0        1.750275    1.242614   -0.310919
     42          6           0        1.320466    4.993381   -0.834072
     43          6           0        3.885682    2.856041   -0.466407
     44          6           0        4.300751    3.074676    0.968261
     45          6           0        5.799170    3.294304    1.047876
     46          8           0        6.280523    3.770718    2.098150
     47          8           0        6.480444    2.985312    0.049627
     48          1           0        3.441085    0.186790   -0.036949
     49          1           0       -0.633804   -4.486192   -0.137642
     50          1           0       -5.364731   -0.376313   -0.208931
     51          1           0       -1.248058    4.235840   -0.849197
     52          1           0        1.617417   -5.230010    0.938683
     53          1           0        3.016294   -5.035195    0.187300
     54          1           0        1.687021   -5.311970   -0.658928
     55          1           0        4.463806   -3.282984    0.684627
     56          1           0        4.587267   -1.712837    0.663807
     57          1           0        4.841886   -1.741358   -1.658077
     58          1           0        4.665500   -3.314794   -1.667143
     59          1           0       -3.717274   -5.582474   -0.730444
     60          1           0       -3.694149   -5.461825    0.849268
     61          1           0       -2.334717   -5.544860    0.041827
     62          1           0       -6.104464   -2.718677   -1.050417
     63          1           0       -5.948325   -4.941688   -0.253650
     64          1           0       -7.237200   -4.235182    0.338135
     65          1           0       -5.963499   -4.455558    1.254580
     66          1           0       -6.478346    2.627966   -1.062013
     67          1           0       -6.355683    2.741891    0.512886
     68          1           0       -6.460104    1.317888   -0.172694
     69          1           0       -3.163941    5.186527   -0.051028
     70          1           0       -5.099976    5.945229    0.579595
     71          1           0       -5.841275    4.595172    0.210628
     72          1           0       -5.708724    5.746624   -0.868977
     73          1           0        1.764054    5.402382   -0.062576
     74          1           0        0.416096    5.360116   -0.923545
     75          1           0        1.833441    5.186720   -1.646157
     76          1           0        4.052672    3.659589   -0.983009
     77          1           0        4.383479    2.113003   -0.843319
     78          1           0        4.061463    2.295686    1.493684
     79          1           0        3.842306    3.853824    1.320263
     80          1           0        7.747368   -3.430832   -2.178023
     81          1           0        6.906062    2.125910    0.006291
     82          1           0       -3.827262    4.970022   -1.630857
     83          1           0       -6.120962   -2.186493    0.598541
     84          1           0        0.767117   -0.098735    3.044599
     85          1           0       -2.326119    0.680880    2.697296
 ---------------------------------------------------------------------

 SCF Done:  E(RPBE1PBE) =  -3537.55026135     A.U. after   21 cycles

 The electronic state is 1-A.
 Alpha  occ. eigenvalues -- -256.31897 -89.03165 -30.08761 -25.91899 -25.91265
 Alpha  occ. eigenvalues --  -25.90769 -19.25911 -19.24871 -19.19008 -19.18392
 Alpha  occ. eigenvalues --  -14.39280 -14.37044 -14.36360 -14.35808 -10.35924
 Alpha  occ. eigenvalues --  -10.35182 -10.24746 -10.24642 -10.24415 -10.24314
 Alpha  occ. eigenvalues --  -10.24268 -10.23916 -10.23903 -10.23678 -10.23490
 Alpha  occ. eigenvalues --  -10.22618 -10.22504 -10.22137 -10.22054 -10.21726
 Alpha  occ. eigenvalues --  -10.21626 -10.21492 -10.21253 -10.20992 -10.20862
 Alpha  occ. eigenvalues --  -10.20825 -10.20748 -10.20517 -10.20370 -10.20097
 Alpha  occ. eigenvalues --  -10.19608 -10.19551 -10.19494 -10.17446 -10.17284
 Alpha  occ. eigenvalues --  -10.17248 -10.16924 -10.16017 -10.15619  -8.01292
 Alpha  occ. eigenvalues --   -5.94964  -5.94657  -5.94125  -3.44558  -2.21795
 Alpha  occ. eigenvalues --   -2.20050  -2.19059  -1.16649  -1.16357  -1.03264
 Alpha  occ. eigenvalues --   -1.02907  -0.99232  -0.96706  -0.95830  -0.94606
 Alpha  occ. eigenvalues --   -0.84721  -0.83806  -0.83545  -0.83207  -0.82730
 Alpha  occ. eigenvalues --   -0.81904  -0.81464  -0.81299  -0.79508  -0.78843
 Alpha  occ. eigenvalues --   -0.78194  -0.77901  -0.76537  -0.74870  -0.73868
 Alpha  occ. eigenvalues --   -0.73263  -0.72859  -0.70594  -0.70298  -0.68758
 Alpha  occ. eigenvalues --   -0.68260  -0.67152  -0.66642  -0.66329  -0.65613
 Alpha  occ. eigenvalues --   -0.64855  -0.64335  -0.59567  -0.59311  -0.56648
 Alpha  occ. eigenvalues --   -0.55880  -0.55460  -0.54025  -0.53550  -0.53392
 Alpha  occ. eigenvalues --   -0.53220  -0.52119  -0.51703  -0.51566  -0.50698
 Alpha  occ. eigenvalues --   -0.49848  -0.49600  -0.49030  -0.48262  -0.48222
 Alpha  occ. eigenvalues --   -0.47971  -0.47833  -0.47639  -0.46920  -0.46629
 Alpha  occ. eigenvalues --   -0.46102  -0.45850  -0.45402  -0.45084  -0.44707
 Alpha  occ. eigenvalues --   -0.44505  -0.44415  -0.44304  -0.44102  -0.43823
 Alpha  occ. eigenvalues --   -0.43623  -0.43268  -0.43061  -0.42920  -0.42720
 Alpha  occ. eigenvalues --   -0.41564  -0.41273  -0.41175  -0.40967  -0.40544
 Alpha  occ. eigenvalues --   -0.40259  -0.39819  -0.39590  -0.39358  -0.39150
 Alpha  occ. eigenvalues --   -0.38689  -0.38075  -0.38054  -0.37529  -0.37427
 Alpha  occ. eigenvalues --   -0.37143  -0.36969  -0.36560  -0.36222  -0.35614
 Alpha  occ. eigenvalues --   -0.35245  -0.34993  -0.34600  -0.34303  -0.34019
 Alpha  occ. eigenvalues --   -0.33962  -0.33710  -0.33326  -0.33075  -0.32282
 Alpha  occ. eigenvalues --   -0.30689  -0.29635  -0.28986  -0.28749  -0.28304
 Alpha  occ. eigenvalues --   -0.27794  -0.27659  -0.27158  -0.24078  -0.23205
 Alpha  occ. eigenvalues --   -0.22229  -0.20549  -0.20022  -0.19292  -0.18820
 Alpha  occ. eigenvalues --   -0.18304
 Alpha virt. eigenvalues --   -0.07499  -0.06984  -0.03157  -0.01027  -0.00873
 Alpha virt. eigenvalues --   -0.00740   0.00624   0.01984   0.02767   0.03710
 Alpha virt. eigenvalues --    0.04998   0.05657   0.05717   0.05864   0.06491

 Mulliken charges:
               1
     1  C   -0.320553
     2  S   -0.165571
     3  H    0.178022
     4  H    0.178961
     5  Fe   0.348160
     6  C   -0.534416
     7  C   -0.538564
     8  C   -0.550421
     9  C   -0.581389
    10  N   -0.292003
    11  C    0.335002
    12  C   -0.039195
    13  C   -0.052188
    14  C    0.205249
    15  C   -0.388473
    16  C   -0.389319
    17  C   -0.212583
    18  C    0.307062
    19  O   -0.358497
    20  O   -0.406441
    21  N   -0.102503
    22  C    0.238827
    23  C   -0.107485
    24  C   -0.135733
    25  C    0.333883
    26  C   -0.375371
    27  C   -0.201969
    28  C   -0.381777
    29  N   -0.163008
    30  C    0.309148
    31  C   -0.103759
    32  C   -0.150015
    33  C    0.221267
    34  C   -0.391831
    35  C   -0.181371
    36  C   -0.365260
    37  N   -0.181115
    38  C    0.389326
    39  C   -0.138089
    40  C   -0.083186
    41  C    0.248339
    42  C   -0.385276
    43  C   -0.254789
    44  C   -0.232920
    45  C    0.301832
    46  O   -0.393140
    47  O   -0.370182
    48  H    0.154558
    49  H    0.161147
    50  H    0.156288
    51  H    0.157962
    52  H    0.149957
    53  H    0.143991
    54  H    0.148386
    55  H    0.145994
    56  H    0.132490
    57  H    0.145550
    58  H    0.148484
    59  H    0.152682
    60  H    0.149198
    61  H    0.136994
    62  H    0.119246
    63  H    0.130998
    64  H    0.141759
    65  H    0.128031
    66  H    0.159569
    67  H    0.151118
    68  H    0.140018
    69  H    0.127289
    70  H    0.134721
    71  H    0.124608
    72  H    0.132456
    73  H    0.145884
    74  H    0.130547
    75  H    0.148651
    76  H    0.142753
    77  H    0.118800
    78  H    0.150070
    79  H    0.138994
    80  H    0.390141
    81  H    0.395377
    82  H    0.125323
    83  H    0.115531
    84  H    0.161706
    85  H    0.196044
 Sum of Mulliken charges =  -0.00000

 Dipole moment (field-independent basis, Debye):
    X=             -4.1362    Y=             -3.9213    Z=             -1.9861  Tot=              6.0357
 Quadrupole moment (field-independent basis, Debye-Ang):
   XX=           -257.7109   YY=           -253.3276   ZZ=           -275.5247
   XY=            -39.0306   XZ=            -45.7966   YZ=             -3.1277

 Normal termination of Gaussian 16 at Mon Sep 12 02:23:22 2022.
