 Gaussian 16, Revision A.03,

 ----------------------------------------------------------------------
 # PBE1PBE/def2TZVP scf=maxcycle=999 empiricaldispersion=GD3BJ int=(gri
 d=ultrafine) geom=check pop=nbo
 ----------------------------------------------------------------------

 ---------
 7abb_II_Q
 ---------
 Structure from the checkpoint file:  "7abb_II_Q.chk"
 Charge =  0 Multiplicity = 5

 SCF Done:  E(UPBE1PBE) =  -3536.26437374     A.U. after   73 cycles

 Summary of Natural Population Analysis:

                                       Natural Population
                Natural  -----------------------------------------------
    Atom  No    Charge         Core      Valence    Rydberg      Total
 -----------------------------------------------------------------------
      C    1   -0.36915      0.99964     2.36466    0.00486     3.36915
      S    2    0.17041      4.99925     2.80748    0.02286     7.82959
      H    3    0.11646      0.00000     0.38264    0.00090     0.38354
      H    4    0.11113      0.00000     0.38818    0.00069     0.38887
      H    5    0.05555      0.00000     0.44008    0.00438     0.44445
     Fe    6    1.24032      8.99537     2.75125    0.01306    11.75968
      C    7   -0.12774      0.99947     2.11954    0.00874     3.12774
      C    8   -0.10409      0.99950     2.09660    0.00799     3.10409
      C    9   -0.09334      0.99948     2.08593    0.00793     3.09334
      C   10   -0.11307      0.99948     2.10540    0.00819     3.11307
      N   11   -0.22137      0.99971     2.70171    0.01995     3.72137
      C   12    0.07769      0.99952     1.91256    0.01023     2.92231
      C   13   -0.02023      0.99934     2.01157    0.00932     3.02023
      C   14   -0.00755      0.99938     2.00005    0.00811     3.00755
      C   15    0.06450      0.99954     1.92558    0.01037     2.93550
      C   16   -0.30555      0.99959     2.30271    0.00325     3.30555
      C   17   -0.19421      0.99952     2.18885    0.00584     3.19421
      C   18   -0.23975      0.99951     2.23246    0.00778     3.23975
      C   19    0.38496      0.99978     1.59694    0.01831     2.61504
      O   20   -0.28245      0.99989     3.27057    0.01199     4.28245
      O   21   -0.34320      0.99980     3.32927    0.01413     4.34320
      N   22   -0.20278      0.99970     2.68327    0.01981     3.70278
      C   23    0.05699      0.99955     1.93279    0.01067     2.94301
      C   24    0.05752      0.99937     1.93515    0.00796     2.94248
      C   25   -0.10563      0.99938     2.09684    0.00942     3.10563
      C   26    0.07173      0.99952     1.91840    0.01035     2.92827
      C   27   -0.30320      0.99957     2.30028    0.00335     3.30320
      C   28    0.41541      0.99919     1.58023    0.00517     2.58459
      C   29   -0.33597      0.99961     2.33345    0.00292     3.33597
      N   30   -0.18911      0.99969     2.66993    0.01949     3.68911
      C   31    0.04690      0.99954     1.94313    0.01043     2.95310
      C   32    0.10719      0.99940     1.88544    0.00797     2.89281
      C   33   -0.12162      0.99939     2.11358    0.00865     3.12162
      C   34    0.09131      0.99955     1.89875    0.01039     2.90869
      C   35   -0.30662      0.99957     2.30376    0.00328     3.30662
      C   36    0.37998      0.99928     1.61566    0.00508     2.62002
      C   37   -0.33155      0.99958     2.32889    0.00308     3.33155
      N   38   -0.22768      0.99969     2.70857    0.01942     3.72768
      C   39    0.06550      0.99947     1.92520    0.00983     2.93450
      C   40    0.00650      0.99957     1.98608    0.00785     2.99350
      C   41   -0.01579      0.99957     2.00769    0.00852     3.01579
      C   42    0.07345      0.99949     1.91715    0.00991     2.92655
      C   43   -0.30808      0.99958     2.30537    0.00313     3.30808
      C   44   -0.20114      0.99955     2.19581    0.00577     3.20114
      C   45   -0.24033      0.99952     2.23299    0.00783     3.24033
      C   46    0.38656      0.99978     1.59518    0.01848     2.61344
      O   47   -0.27994      0.99989     3.26821    0.01184     4.27994
      O   48   -0.34560      0.99979     3.33081    0.01501     4.34560
      H   49    0.10005      0.00000     0.39890    0.00105     0.39995
      H   50    0.10146      0.00000     0.39721    0.00133     0.39854
      H   51    0.10612      0.00000     0.39246    0.00141     0.39388
      H   52    0.10426      0.00000     0.39416    0.00158     0.39574
      H   53    0.10560      0.00000     0.39365    0.00074     0.39440
      H   54    0.10218      0.00000     0.39718    0.00064     0.39782
      H   55    0.10610      0.00000     0.39317    0.00073     0.39390
      H   56    0.09980      0.00000     0.39899    0.00121     0.40020
      H   57    0.09952      0.00000     0.39943    0.00105     0.40048
      H   58    0.11155      0.00000     0.38782    0.00063     0.38845
      H   59    0.11217      0.00000     0.38722    0.00061     0.38783
      H   60    0.10619      0.00000     0.39308    0.00074     0.39381
      H   61    0.10635      0.00000     0.39291    0.00074     0.39365
      H   62    0.10136      0.00000     0.39809    0.00056     0.39864
      H   63    0.06763      0.00000     0.43109    0.00128     0.43237
      H   64    0.12261      0.00000     0.37678    0.00060     0.37739
      H   65    0.10571      0.00000     0.39374    0.00055     0.39429
      H   66    0.10457      0.00000     0.39476    0.00067     0.39543
      H   67    0.10926      0.00000     0.39007    0.00067     0.39074
      H   68    0.10726      0.00000     0.39200    0.00074     0.39274
      H   69    0.10250      0.00000     0.39694    0.00056     0.39750
      H   70    0.06555      0.00000     0.43339    0.00106     0.43445
      H   71    0.10735      0.00000     0.39215    0.00050     0.39265
      H   72    0.10471      0.00000     0.39456    0.00072     0.39529
      H   73    0.11581      0.00000     0.38363    0.00055     0.38419
      H   74    0.10593      0.00000     0.39336    0.00071     0.39407
      H   75    0.10307      0.00000     0.39636    0.00058     0.39693
      H   76    0.10682      0.00000     0.39249    0.00069     0.39318
      H   77    0.10444      0.00000     0.39456    0.00100     0.39556
      H   78    0.09914      0.00000     0.39950    0.00136     0.40086
      H   79    0.10989      0.00000     0.38948    0.00063     0.39011
      H   80    0.11224      0.00000     0.38710    0.00067     0.38776
      H   81    0.11886      0.00000     0.38064    0.00050     0.38114
      H   82    0.25991      0.00000     0.23887    0.00122     0.24009
      H   83    0.26073      0.00000     0.23800    0.00127     0.23927
 =======================================================================
   * Total *    2.00000     56.97556   115.54042    0.48402   173.00000

 Normal termination of Gaussian 16 at Thu Feb  9 14:36:50 2023.
 Gaussian 16:  ES64L-G16RevA.03 25-Dec-2016

 ----------------------------------------------------------------------
 # PBE1PBE/def2TZVP empiricaldispersion=GD3BJ int=(grid=ultrafine) geom
 =check guess=read scrf=(smd,solvent=Chloroform)
 ----------------------------------------------------------------------

 --------------
 7abb_II_Q_solv
 --------------
 Structure from the checkpoint file:  "7abb_II_Q.chk"
 Charge =  0 Multiplicity = 5

                         Standard orientation:
 ---------------------------------------------------------------------
 Center     Atomic      Atomic             Coordinates (Angstroms)
 Number     Number       Type             X           Y           Z
 ---------------------------------------------------------------------
      1          6           0       -0.099815   -0.741131    2.868263
      2         16           0       -1.423706    0.139127    2.014664
      3          1           0        0.227513   -1.563284    2.266747
      4          1           0       -0.461893   -1.107320    3.806189
      5          1           0       -2.337969   -0.615733    1.828081
      6         26           0       -1.025414   -0.053066   -0.216733
      7          6           0        2.410616    0.119091   -0.148010
      8          6           0       -0.789278   -3.469434   -0.131450
      9          6           0       -4.449014   -0.247233   -0.242724
     10          6           0       -1.240077    3.314351   -0.674279
     11          7           0        0.489991   -1.382738   -0.170891
     12          6           0        1.859113   -1.126380   -0.096827
     13          6           0        2.623336   -2.351303    0.019404
     14          6           0        1.708493   -3.337365    0.033159
     15          6           0        0.393101   -2.757699   -0.086525
     16          6           0        1.955411   -4.854175    0.120335
     17          6           0        4.182832   -2.483606    0.151075
     18          6           0        4.912583   -2.563023   -1.183552
     19          6           0        6.401750   -2.744028   -0.943018
     20          8           0        7.114661   -2.699264   -1.971834
     21          8           0        6.806125   -2.922694    0.235728
     22          7           0       -2.357297   -1.556886   -0.248840
     23          6           0       -2.064224   -2.905433   -0.160252
     24          6           0       -3.307601   -3.611986   -0.083719
     25          6           0       -4.313175   -2.717926   -0.089260
     26          6           0       -3.742102   -1.422019   -0.217716
     27          6           0       -3.342756   -5.148948    0.032982
     28          6           0       -5.814049   -2.848802   -0.052365
     29          6           0       -6.358155   -4.174454    0.372104
     30          7           0       -2.541438    1.287127   -0.453129
     31          6           0       -3.882130    0.999743   -0.336288
     32          6           0       -4.627983    2.229525   -0.362337
     33          6           0       -3.749448    3.251206   -0.475380
     34          6           0       -2.435849    2.654854   -0.552528
     35          6           0       -6.151506    2.298646   -0.240820
     36          6           0       -3.969218    4.769311   -0.583589
     37          6           0       -5.287135    5.376666   -0.103393
     38          7           0        0.324537    1.405425   -0.403278
     39          6           0       -0.009197    2.748106   -0.581492
     40          6           0        1.205216    3.499242   -0.636041
     41          6           0        2.340441    2.549424   -0.482733
     42          6           0        1.700094    1.262464   -0.320043
     43          6           0        1.297534    5.017035   -0.837559
     44          6           0        3.847411    2.859317   -0.482445
     45          6           0        4.269936    3.073162    0.950767
     46          6           0        5.770336    3.280985    1.024580
     47          8           0        6.259614    3.752494    2.073402
     48          8           0        6.445156    2.967747    0.023276
     49          1           0        3.383677    0.193162   -0.053979
     50          1           0       -0.728005   -4.447712   -0.143132
     51          1           0       -5.426892   -0.300902   -0.191104
     52          1           0       -1.276876    4.279612   -0.843134
     53          1           0        1.521632   -5.210259    0.923349
     54          1           0        2.918963   -5.025581    0.166546
     55          1           0        1.584177   -5.291048   -0.674614
     56          1           0        4.382121   -3.285271    0.659865
     57          1           0        4.517774   -1.716114    0.640182
     58          1           0        4.762834   -1.744137   -1.682737
     59          1           0        4.574113   -3.316135   -1.692729
     60          1           0       -3.822312   -5.519223   -0.724659
     61          1           0       -3.791898   -5.400450    0.855071
     62          1           0       -2.436412   -5.493245    0.042080
     63          1           0       -6.168916   -2.628224   -0.916627
     64          1           0       -6.046350   -4.861525   -0.238223
     65          1           0       -7.327273   -4.145602    0.359478
     66          1           0       -6.051662   -4.376908    1.270560
     67          1           0       -6.520392    2.712902   -1.036572
     68          1           0       -6.390518    2.824176    0.537939
     69          1           0       -6.508827    1.401769   -0.148697
     70          1           0       -3.241372    5.222307   -0.152932
     71          1           0       -5.109538    6.017527    0.602926
     72          1           0       -5.862850    4.673702    0.235541
     73          1           0       -5.725633    5.825239   -0.843389
     74          1           0        1.747402    5.421729   -0.067430
     75          1           0        0.395708    5.390924   -0.923010
     76          1           0        1.808740    5.207229   -1.651500
     77          1           0        4.018605    3.662087   -0.998879
     78          1           0        4.337862    2.112813   -0.862131
     79          1           0        4.026676    2.295505    1.476338
     80          1           0        3.819015    3.855491    1.305422
     81          1           0        0.719958   -0.074754    3.038008
     82          1           0        6.863863    2.105092   -0.022668
     83          1           0        7.177077   -3.770023    0.492687
 ---------------------------------------------------------------------

 SCF Done:  E(UPBE1PBE) =  -3536.31898352     A.U. after   48 cycles

 Alpha virt. eigenvalues --    0.38520   0.38788   0.38945   0.39437   0.39656
 Alpha virt. eigenvalues --    0.39923   0.40001   0.40217   0.40314   0.40587
 Alpha virt. eigenvalues --    0.40854   0.40951   0.41304   0.41714   0.41947

  Beta  occ. eigenvalues -- -256.33892 -89.00583 -30.08549 -25.92731 -25.92383
  Beta  occ. eigenvalues --  -25.89271 -19.26079 -19.25016 -19.19014 -19.18559
  Beta  occ. eigenvalues --  -14.38708 -14.38546 -14.38522 -14.38067 -10.36111
  Beta  occ. eigenvalues --  -10.35362 -10.25495 -10.25314 -10.25178 -10.25151
  Beta  occ. eigenvalues --  -10.25012 -10.24945 -10.24932 -10.24780 -10.23214
  Beta  occ. eigenvalues --  -10.23154 -10.23127 -10.22746 -10.22713 -10.22565
  Beta  occ. eigenvalues --  -10.22560 -10.22331 -10.22108 -10.21565 -10.21328
  Beta  occ. eigenvalues --  -10.21264 -10.20982 -10.20981 -10.20936 -10.20425
  Beta  occ. eigenvalues --  -10.20294 -10.19861 -10.19744 -10.18057 -10.17553
  Beta  occ. eigenvalues --  -10.17505 -10.17340 -10.16577 -10.16457  -7.99058
  Beta  occ. eigenvalues --   -5.92696  -5.92302  -5.91853  -3.40711  -2.17715
  Beta  occ. eigenvalues --   -2.16966  -2.12654  -1.16640  -1.16510  -1.03613
  Beta  occ. eigenvalues --   -1.03069  -0.98671  -0.97808  -0.97334  -0.95875
  Beta  occ. eigenvalues --   -0.85219  -0.84467  -0.84139  -0.82751  -0.82489
  Beta  occ. eigenvalues --   -0.82348  -0.81817  -0.81066  -0.80316  -0.79160
  Beta  occ. eigenvalues --   -0.78165  -0.77568  -0.77086  -0.75304  -0.74053
  Beta  occ. eigenvalues --   -0.73688  -0.73327  -0.70886  -0.70213  -0.69188
  Beta  occ. eigenvalues --   -0.68116  -0.67758  -0.67430  -0.66839  -0.66333
  Beta  occ. eigenvalues --   -0.63815  -0.63237  -0.59977  -0.59863  -0.57167
  Beta  occ. eigenvalues --   -0.56149  -0.55812  -0.54365  -0.53948  -0.53480
  Beta  occ. eigenvalues --   -0.53341  -0.52556  -0.52008  -0.51921  -0.51243
  Beta  occ. eigenvalues --   -0.49928  -0.49882  -0.49569  -0.49108  -0.48187
  Beta  occ. eigenvalues --   -0.47660  -0.47300  -0.46759  -0.46582  -0.46322
  Beta  occ. eigenvalues --   -0.46113  -0.45938  -0.45083  -0.44950  -0.44765
  Beta  occ. eigenvalues --   -0.44473  -0.44370  -0.44049  -0.44000  -0.43817
  Beta  occ. eigenvalues --   -0.43488  -0.43317  -0.43080  -0.42852  -0.42192
  Beta  occ. eigenvalues --   -0.41929  -0.41663  -0.41491  -0.41018  -0.40963
  Beta  occ. eigenvalues --   -0.40831  -0.40306  -0.40154  -0.39976  -0.39490
  Beta  occ. eigenvalues --   -0.39069  -0.38706  -0.38275  -0.37691  -0.37291
  Beta  occ. eigenvalues --   -0.37063  -0.36635  -0.35962  -0.35822  -0.35469
  Beta  occ. eigenvalues --   -0.34987  -0.34692  -0.34542  -0.34122  -0.33969
  Beta  occ. eigenvalues --   -0.33923  -0.33760  -0.32926  -0.31767  -0.30978
  Beta  occ. eigenvalues --   -0.29604  -0.29226  -0.28593  -0.28235  -0.28173
  Beta  occ. eigenvalues --   -0.26539  -0.25409  -0.25338  -0.23405  -0.20505
  Beta  occ. eigenvalues --   -0.20149  -0.18183  -0.18032
  Beta virt. eigenvalues --   -0.08453  -0.08363  -0.05603  -0.04755  -0.02773
  Beta virt. eigenvalues --   -0.01479  -0.01081  -0.00287   0.01672   0.01928
  Beta virt. eigenvalues --    0.02598   0.03962   0.04354   0.04689   0.04890

 Mulliken charges and spin densities:
               1          2
     1  C   -0.349400  -0.010312
     2  S   -0.104304   0.092970
     3  H    0.152496   0.003319
     4  H    0.167038   0.001492
     5  H    0.175189  -0.007649
     6  Fe  -0.056809   2.185340
     7  C   -0.510684  -0.027340
     8  C   -0.546485   0.031687
     9  C   -0.477666   0.056623
    10  C   -0.528553  -0.022859
    11  N   -0.131367  -0.025923
    12  C    0.301891   0.011120
    13  C    0.001584  -0.009902
    14  C   -0.050660   0.005533
    15  C    0.197783  -0.022358
    16  C   -0.382697  -0.000277
    17  C   -0.393497   0.000770
    18  C   -0.195845  -0.000495
    19  C    0.299218   0.000064
    20  O   -0.393019  -0.000028
    21  O   -0.374451  -0.000001
    22  N   -0.124447   0.014867
    23  C    0.289959  -0.038034
    24  C   -0.103268   0.135879
    25  C   -0.078101  -0.133427
    26  C    0.197684  -0.030030
    27  C   -0.367201  -0.006904
    28  C   -0.202758   0.947542
    29  C   -0.366390  -0.039296
    30  N   -0.101174   0.017286
    31  C    0.328345  -0.069905
    32  C   -0.113803   0.234355
    33  C   -0.147771  -0.180892
    34  C    0.273576   0.025646
    35  C   -0.386266  -0.011205
    36  C   -0.138010   0.886569
    37  C   -0.357206  -0.038220
    38  N   -0.072026  -0.048286
    39  C    0.321303   0.001421
    40  C   -0.113152   0.005949
    41  C   -0.074153  -0.011167
    42  C    0.268508   0.012790
    43  C   -0.381130  -0.000978
    44  C   -0.255793   0.000420
    45  C   -0.234555  -0.000252
    46  C    0.300266  -0.000042
    47  O   -0.392128  -0.000050
    48  O   -0.368671   0.000007
    49  H    0.154942   0.001095
    50  H    0.164285  -0.001208
    51  H    0.172534   0.000256
    52  H    0.155299   0.000840
    53  H    0.152578   0.000011
    54  H    0.141473  -0.000064
    55  H    0.151733   0.000053
    56  H    0.135573  -0.000098
    57  H    0.139729  -0.000128
    58  H    0.142232   0.000210
    59  H    0.147326  -0.000020
    60  H    0.156465   0.003580
    61  H    0.151116   0.001884
    62  H    0.137877   0.000310
    63  H    0.138533  -0.021480
    64  H    0.145851   0.039691
    65  H    0.147255   0.004844
    66  H    0.130855   0.006899
    67  H    0.161308   0.005628
    68  H    0.153925   0.005642
    69  H    0.140538   0.000825
    70  H    0.132523  -0.026814
    71  H    0.139967   0.011006
    72  H    0.123072   0.007841
    73  H    0.142149   0.022716
    74  H    0.146845   0.000364
    75  H    0.133745   0.000229
    76  H    0.150262   0.000144
    77  H    0.144925  -0.000173
    78  H    0.122112  -0.000166
    79  H    0.149533   0.000068
    80  H    0.141012  -0.000028
    81  H    0.161159   0.000223
    82  H    0.395445   0.000009
    83  H    0.394426  -0.000005
 Sum of Mulliken charges =  -0.00000   4.00000

 Dipole moment (field-independent basis, Debye):
    X=             -2.7868    Y=             -7.5763    Z=              2.2471  Tot=              8.3795
 Quadrupole moment (field-independent basis, Debye-Ang):
   XX=           -275.5430   YY=           -241.1172   ZZ=           -295.1131
   XY=            -29.8308   XZ=              5.3884   YZ=            -21.8141

 Normal termination of Gaussian 16 at Fri Feb 10 16:53:41 2023.
