 Gaussian 16, Revision A.03,

 ----------------------------------------------------------------------
 # PBE1PBE/def2TZVP scf=maxcycle=999 empiricaldispersion=GD3BJ int=(gri
 d=ultrafine) geom=check pop=nbo
 ----------------------------------------------------------------------

 ----------
 7abb_III_D
 ----------
 Structure from the checkpoint file:  "7abb_III_D.chk"
 Charge =  1 Multiplicity = 2

 SCF Done:  E(UPBE1PBE) =  -3536.04354714     A.U. after   80 cycles

 Summary of Natural Population Analysis:

                                       Natural Population
                Natural  -----------------------------------------------
    Atom  No    Charge         Core      Valence    Rydberg      Total
 -----------------------------------------------------------------------
      C    1   -0.36601      0.99963     2.36153    0.00485     3.36601
      S    2    0.16554      4.99924     2.81268    0.02254     7.83446
      H    3    0.11877      0.00000     0.38039    0.00084     0.38123
      H    4    0.11906      0.00000     0.38034    0.00059     0.38094
      H    5    0.06276      0.00000     0.43312    0.00412     0.43724
     Fe    6    0.22598      8.99547     3.76390    0.01466    12.77402
      C    7   -0.11036      0.99947     2.10225    0.00865     3.11036
      C    8   -0.09222      0.99950     2.08487    0.00785     3.09222
      C    9   -0.09075      0.99948     2.08333    0.00794     3.09075
      C   10   -0.11779      0.99947     2.11008    0.00823     3.11779
      N   11   -0.20185      0.99970     2.67914    0.02302     3.70185
      C   12    0.06944      0.99952     1.92060    0.01044     2.93056
      C   13   -0.00111      0.99935     1.99288    0.00888     3.00111
      C   14   -0.01332      0.99939     2.00594    0.00799     3.01332
      C   15    0.07663      0.99955     1.91345    0.01038     2.92337
      C   16   -0.30441      0.99958     2.30163    0.00320     3.30441
      C   17   -0.19525      0.99951     2.19002    0.00572     3.19525
      C   18   -0.23852      0.99951     2.23127    0.00774     3.23852
      C   19    0.38273      0.99978     1.59934    0.01814     2.61727
      O   20   -0.27420      0.99989     3.26232    0.01199     4.27420
      O   21   -0.34298      0.99980     3.32917    0.01401     4.34298
      N   22   -0.19073      0.99970     2.66859    0.02245     3.69073
      C   23    0.06871      0.99955     1.92114    0.01059     2.93129
      C   24    0.07698      0.99937     1.91586    0.00778     2.92302
      C   25   -0.10989      0.99938     2.10121    0.00930     3.10989
      C   26    0.08330      0.99953     1.90683    0.01035     2.91670
      C   27   -0.30260      0.99956     2.29980    0.00323     3.30260
      C   28    0.42043      0.99919     1.57555    0.00483     2.57957
      C   29   -0.33427      0.99960     2.33182    0.00286     3.33427
      N   30   -0.17858      0.99969     2.65618    0.02271     3.67858
      C   31    0.06423      0.99954     1.92584    0.01039     2.93577
      C   32    0.07055      0.99940     1.92147    0.00858     2.92945
      C   33   -0.03416      0.99937     2.02574    0.00905     3.03416
      C   34    0.07081      0.99955     1.91901    0.01063     2.92919
      C   35   -0.30305      0.99956     2.30020    0.00329     3.30305
      C   36    0.01544      0.99948     1.97938    0.00571     2.98456
      C   37   -0.31762      0.99955     2.31459    0.00348     3.31762
      N   38   -0.22388      0.99969     2.70137    0.02283     3.72388
      C   39    0.07445      0.99948     1.91608    0.00999     2.92555
      C   40    0.00030      0.99957     1.99243    0.00770     2.99970
      C   41    0.01432      0.99958     1.97762    0.00848     2.98568
      C   42    0.06762      0.99949     1.92287    0.01001     2.93238
      C   43   -0.30676      0.99958     2.30410    0.00308     3.30676
      C   44   -0.20287      0.99955     2.19762    0.00570     3.20287
      C   45   -0.23891      0.99951     2.23167    0.00773     3.23891
      C   46    0.38427      0.99978     1.59767    0.01827     2.61573
      O   47   -0.27069      0.99989     3.25894    0.01185     4.27069
      O   48   -0.34394      0.99979     3.32916    0.01499     4.34394
      H   49    0.10437      0.00000     0.39456    0.00107     0.39563
      H   50    0.10611      0.00000     0.39255    0.00134     0.39389
      H   51    0.11029      0.00000     0.38836    0.00135     0.38971
      H   52    0.10590      0.00000     0.39253    0.00157     0.39410
      H   53    0.10793      0.00000     0.39138    0.00068     0.39207
      H   54    0.10661      0.00000     0.39279    0.00060     0.39339
      H   55    0.10876      0.00000     0.39057    0.00067     0.39124
      H   56    0.10368      0.00000     0.39515    0.00117     0.39632
      H   57    0.10112      0.00000     0.39787    0.00101     0.39888
      H   58    0.11060      0.00000     0.38879    0.00061     0.38940
      H   59    0.11297      0.00000     0.38645    0.00058     0.38703
      H   60    0.11142      0.00000     0.38792    0.00067     0.38858
      H   61    0.11105      0.00000     0.38828    0.00067     0.38895
      H   62    0.10264      0.00000     0.39682    0.00054     0.39736
      H   63    0.07029      0.00000     0.42849    0.00122     0.42971
      H   64    0.12620      0.00000     0.37323    0.00057     0.37380
      H   65    0.11069      0.00000     0.38880    0.00051     0.38931
      H   66    0.10650      0.00000     0.39287    0.00063     0.39350
      H   67    0.11327      0.00000     0.38606    0.00067     0.38673
      H   68    0.11008      0.00000     0.38920    0.00072     0.38992
      H   69    0.10727      0.00000     0.39220    0.00053     0.39273
      H   70    0.08640      0.00000     0.41258    0.00102     0.41360
      H   71    0.11270      0.00000     0.38672    0.00059     0.38730
      H   72    0.10697      0.00000     0.39225    0.00077     0.39303
      H   73    0.11764      0.00000     0.38173    0.00063     0.38236
      H   74    0.11020      0.00000     0.38913    0.00067     0.38980
      H   75    0.10209      0.00000     0.39735    0.00055     0.39791
      H   76    0.11148      0.00000     0.38787    0.00065     0.38852
      H   77    0.10843      0.00000     0.39063    0.00095     0.39157
      H   78    0.10188      0.00000     0.39682    0.00130     0.39812
      H   79    0.10812      0.00000     0.39128    0.00060     0.39188
      H   80    0.11285      0.00000     0.38651    0.00065     0.38715
      H   81    0.12357      0.00000     0.37594    0.00049     0.37643
      H   82    0.26114      0.00000     0.23769    0.00117     0.23886
      H   83    0.26319      0.00000     0.23563    0.00119     0.23681
 =======================================================================
   * Total *    1.00000     56.97578   116.52801    0.49622   174.00000

 Normal termination of Gaussian 16 at Thu Feb  9 17:19:30 2023.
 Gaussian 16:  ES64L-G16RevA.03 25-Dec-2016

 ----------------------------------------------------------------------
 # PBE1PBE/def2TZVP empiricaldispersion=GD3BJ int=(grid=ultrafine) geom
 =check guess=read scrf=(smd,solvent=Chloroform)
 ----------------------------------------------------------------------

 ---------------
 7abb_III_D_solv
 ---------------
 Structure from the checkpoint file:  "7abb_III_D.chk"
 Charge =  1 Multiplicity = 2

                         Standard orientation:
 ---------------------------------------------------------------------
 Center     Atomic      Atomic             Coordinates (Angstroms)
 Number     Number       Type             X           Y           Z
 ---------------------------------------------------------------------
      1          6           0       -0.099815   -0.741131    2.868263
      2         16           0       -1.423706    0.139127    2.014664
      3          1           0        0.227513   -1.563284    2.266747
      4          1           0       -0.461893   -1.107320    3.806189
      5          1           0       -2.337969   -0.615733    1.828081
      6         26           0       -1.025414   -0.053066   -0.216733
      7          6           0        2.410616    0.119091   -0.148010
      8          6           0       -0.789278   -3.469434   -0.131450
      9          6           0       -4.449014   -0.247233   -0.242724
     10          6           0       -1.240077    3.314351   -0.674279
     11          7           0        0.489991   -1.382738   -0.170891
     12          6           0        1.859113   -1.126380   -0.096827
     13          6           0        2.623336   -2.351303    0.019404
     14          6           0        1.708493   -3.337365    0.033159
     15          6           0        0.393101   -2.757699   -0.086525
     16          6           0        1.955411   -4.854175    0.120335
     17          6           0        4.182832   -2.483606    0.151075
     18          6           0        4.912583   -2.563023   -1.183552
     19          6           0        6.401750   -2.744028   -0.943018
     20          8           0        7.114661   -2.699264   -1.971834
     21          8           0        6.806125   -2.922694    0.235728
     22          7           0       -2.357297   -1.556886   -0.248840
     23          6           0       -2.064224   -2.905433   -0.160252
     24          6           0       -3.307601   -3.611986   -0.083719
     25          6           0       -4.313175   -2.717926   -0.089260
     26          6           0       -3.742102   -1.422019   -0.217716
     27          6           0       -3.342756   -5.148948    0.032982
     28          6           0       -5.814049   -2.848802   -0.052365
     29          6           0       -6.358155   -4.174454    0.372104
     30          7           0       -2.541438    1.287127   -0.453129
     31          6           0       -3.882130    0.999743   -0.336288
     32          6           0       -4.627983    2.229525   -0.362337
     33          6           0       -3.749448    3.251206   -0.475380
     34          6           0       -2.435849    2.654854   -0.552528
     35          6           0       -6.151506    2.298646   -0.240820
     36          6           0       -3.969218    4.769311   -0.583589
     37          6           0       -5.287135    5.376666   -0.103393
     38          7           0        0.324537    1.405425   -0.403278
     39          6           0       -0.009197    2.748106   -0.581492
     40          6           0        1.205216    3.499242   -0.636041
     41          6           0        2.340441    2.549424   -0.482733
     42          6           0        1.700094    1.262464   -0.320043
     43          6           0        1.297534    5.017035   -0.837559
     44          6           0        3.847411    2.859317   -0.482445
     45          6           0        4.269936    3.073162    0.950767
     46          6           0        5.770336    3.280985    1.024580
     47          8           0        6.259614    3.752494    2.073402
     48          8           0        6.445156    2.967747    0.023276
     49          1           0        3.383677    0.193162   -0.053979
     50          1           0       -0.728005   -4.447712   -0.143132
     51          1           0       -5.426892   -0.300902   -0.191104
     52          1           0       -1.276876    4.279612   -0.843134
     53          1           0        1.521632   -5.210259    0.923349
     54          1           0        2.918963   -5.025581    0.166546
     55          1           0        1.584177   -5.291048   -0.674614
     56          1           0        4.382121   -3.285271    0.659865
     57          1           0        4.517774   -1.716114    0.640182
     58          1           0        4.762834   -1.744137   -1.682737
     59          1           0        4.574113   -3.316135   -1.692729
     60          1           0       -3.822312   -5.519223   -0.724659
     61          1           0       -3.791898   -5.400450    0.855071
     62          1           0       -2.436412   -5.493245    0.042080
     63          1           0       -6.168916   -2.628224   -0.916627
     64          1           0       -6.046350   -4.861525   -0.238223
     65          1           0       -7.327273   -4.145602    0.359478
     66          1           0       -6.051662   -4.376908    1.270560
     67          1           0       -6.520392    2.712902   -1.036572
     68          1           0       -6.390518    2.824176    0.537939
     69          1           0       -6.508827    1.401769   -0.148697
     70          1           0       -3.241372    5.222307   -0.152932
     71          1           0       -5.109538    6.017527    0.602926
     72          1           0       -5.862850    4.673702    0.235541
     73          1           0       -5.725633    5.825239   -0.843389
     74          1           0        1.747402    5.421729   -0.067430
     75          1           0        0.395708    5.390924   -0.923010
     76          1           0        1.808740    5.207229   -1.651500
     77          1           0        4.018605    3.662087   -0.998879
     78          1           0        4.337862    2.112813   -0.862131
     79          1           0        4.026676    2.295505    1.476338
     80          1           0        3.819015    3.855491    1.305422
     81          1           0        0.719958   -0.074754    3.038008
     82          1           0        6.863863    2.105092   -0.022668
     83          1           0        7.177077   -3.770023    0.492687
 ---------------------------------------------------------------------

 SCF Done:  E(UPBE1PBE) =  -3536.14241159     A.U. after   52 cycles

 Alpha virt. eigenvalues --    0.35723   0.36279   0.36301   0.36680   0.36751
 Alpha virt. eigenvalues --    0.37199   0.37281   0.37599   0.37880   0.37979
 Alpha virt. eigenvalues --    0.38337   0.38507   0.38679   0.38780   0.38923

  Beta  occ. eigenvalues -- -256.36642 -89.05149 -30.13350 -25.96367 -25.95766
  Beta  occ. eigenvalues --  -25.95657 -19.27225 -19.26283 -19.20190 -19.19861
  Beta  occ. eigenvalues --  -14.43214 -14.41305 -14.41259 -14.40474 -10.37344
  Beta  occ. eigenvalues --  -10.36731 -10.31666 -10.29552 -10.29463 -10.28963
  Beta  occ. eigenvalues --  -10.28886 -10.28569 -10.28386 -10.28229 -10.28163
  Beta  occ. eigenvalues --  -10.28073 -10.28055 -10.26084 -10.26025 -10.25934
  Beta  occ. eigenvalues --  -10.25372 -10.25366 -10.25122 -10.25101 -10.24862
  Beta  occ. eigenvalues --  -10.24472 -10.24396 -10.23672 -10.23373 -10.22211
  Beta  occ. eigenvalues --  -10.21801 -10.21791 -10.21423 -10.21361 -10.20734
  Beta  occ. eigenvalues --  -10.19839 -10.19658 -10.19474 -10.18219  -8.03550
  Beta  occ. eigenvalues --   -5.97150  -5.96809  -5.96410  -3.48242  -2.24952
  Beta  occ. eigenvalues --   -2.23374  -2.22915  -1.17794  -1.17786  -1.04777
  Beta  occ. eigenvalues --   -1.04355  -1.02848  -1.01057  -1.00238  -0.98725
  Beta  occ. eigenvalues --   -0.88402  -0.87806  -0.86463  -0.86274  -0.85520
  Beta  occ. eigenvalues --   -0.85301  -0.85100  -0.84554  -0.82986  -0.82321
  Beta  occ. eigenvalues --   -0.81398  -0.80393  -0.80165  -0.78620  -0.77048
  Beta  occ. eigenvalues --   -0.76111  -0.75547  -0.73793  -0.71944  -0.71360
  Beta  occ. eigenvalues --   -0.71149  -0.70523  -0.70168  -0.69267  -0.68774
  Beta  occ. eigenvalues --   -0.68407  -0.66012  -0.63282  -0.62970  -0.60305
  Beta  occ. eigenvalues --   -0.59576  -0.58883  -0.57603  -0.56599  -0.55907
  Beta  occ. eigenvalues --   -0.55563  -0.54890  -0.54383  -0.53732  -0.53544
  Beta  occ. eigenvalues --   -0.52831  -0.51949  -0.51383  -0.51255  -0.50861
  Beta  occ. eigenvalues --   -0.50566  -0.50220  -0.49730  -0.49133  -0.48795
  Beta  occ. eigenvalues --   -0.48370  -0.48260  -0.48136  -0.48118  -0.47825
  Beta  occ. eigenvalues --   -0.47275  -0.47123  -0.47023  -0.46740  -0.46320
  Beta  occ. eigenvalues --   -0.46144  -0.46034  -0.45668  -0.45222  -0.44976
  Beta  occ. eigenvalues --   -0.44897  -0.44572  -0.44268  -0.44236  -0.43826
  Beta  occ. eigenvalues --   -0.43412  -0.42902  -0.42298  -0.42127  -0.42090
  Beta  occ. eigenvalues --   -0.41658  -0.41399  -0.40996  -0.40674  -0.40481
  Beta  occ. eigenvalues --   -0.39835  -0.39554  -0.39306  -0.38868  -0.38042
  Beta  occ. eigenvalues --   -0.37561  -0.37475  -0.37118  -0.37025  -0.36062
  Beta  occ. eigenvalues --   -0.35694  -0.35309  -0.35206  -0.34991  -0.33798
  Beta  occ. eigenvalues --   -0.33183  -0.32151  -0.32095  -0.31700  -0.30051
  Beta  occ. eigenvalues --   -0.29731  -0.29274  -0.28068  -0.26219  -0.25923
  Beta  occ. eigenvalues --   -0.24900  -0.23910  -0.23052  -0.22780
  Beta virt. eigenvalues --   -0.17181  -0.11307  -0.10345  -0.07818  -0.04944
  Beta virt. eigenvalues --   -0.03611  -0.02679  -0.02390  -0.00411   0.00548
  Beta virt. eigenvalues --    0.01332   0.01667   0.01881   0.03145   0.04050

 Mulliken charges and spin densities:
               1          2
     1  C   -0.348050  -0.000157
     2  S   -0.040210   0.013974
     3  H    0.161294   0.001670
     4  H    0.181832   0.001241
     5  H    0.186997  -0.000632
     6  Fe  -0.077590   0.036133
     7  C   -0.521596   0.003029
     8  C   -0.542229   0.057551
     9  C   -0.460289   0.051859
    10  C   -0.520816  -0.032964
    11  N   -0.108463   0.023815
    12  C    0.329387  -0.019085
    13  C    0.013398   0.001238
    14  C   -0.049635  -0.005485
    15  C    0.221666  -0.032362
    16  C   -0.374493   0.000154
    17  C   -0.387536   0.000516
    18  C   -0.196955  -0.000148
    19  C    0.300184   0.000035
    20  O   -0.389501   0.000007
    21  O   -0.374579   0.000004
    22  N   -0.114011   0.081225
    23  C    0.326576  -0.050060
    24  C   -0.098773   0.161756
    25  C   -0.070075  -0.152920
    26  C    0.209503  -0.020291
    27  C   -0.357793  -0.007961
    28  C   -0.188343   0.934079
    29  C   -0.364675  -0.037476
    30  N   -0.055775  -0.006809
    31  C    0.333114  -0.017841
    32  C   -0.060626   0.054123
    33  C   -0.143232   0.018130
    34  C    0.299646  -0.011456
    35  C   -0.368754  -0.002447
    36  C    0.044285  -0.057419
    37  C   -0.336227   0.002542
    38  N   -0.070303  -0.021330
    39  C    0.334153   0.004867
    40  C   -0.107483  -0.009380
    41  C   -0.050943   0.016565
    42  C    0.291718  -0.015353
    43  C   -0.374149   0.000182
    44  C   -0.248776  -0.001454
    45  C   -0.236513   0.000490
    46  C    0.301392   0.000211
    47  O   -0.387874   0.000043
    48  O   -0.367829  -0.000001
    49  H    0.162779  -0.000081
    50  H    0.172529  -0.002431
    51  H    0.181099   0.001094
    52  H    0.159530   0.001280
    53  H    0.155557  -0.000234
    54  H    0.147158   0.000041
    55  H    0.154948  -0.000196
    56  H    0.140345   0.000012
    57  H    0.141956  -0.000004
    58  H    0.141944   0.000094
    59  H    0.149570  -0.000004
    60  H    0.161736   0.004469
    61  H    0.156078   0.002663
    62  H    0.142199   0.000341
    63  H    0.145607  -0.021979
    64  H    0.150534   0.039448
    65  H    0.152162   0.004812
    66  H    0.134042   0.006908
    67  H    0.173018   0.001610
    68  H    0.164707   0.001382
    69  H    0.151494   0.000546
    70  H    0.171497   0.001561
    71  H    0.164371  -0.000841
    72  H    0.141440  -0.000660
    73  H    0.168850  -0.001795
    74  H    0.153071  -0.000066
    75  H    0.132085  -0.000040
    76  H    0.156688  -0.000319
    77  H    0.149351   0.000079
    78  H    0.126041   0.000095
    79  H    0.149517  -0.000038
    80  H    0.142798   0.000016
    81  H    0.171058  -0.000169
    82  H    0.396757  -0.000003
    83  H    0.396439  -0.000001
 Sum of Mulliken charges =   1.00000   1.00000

 Dipole moment (field-independent basis, Debye):
    X=            -13.6931    Y=             -0.8210    Z=              1.8036  Tot=             13.8357
 Quadrupole moment (field-independent basis, Debye-Ang):
   XX=           -202.9548   YY=           -175.0921   ZZ=           -283.6215
   XY=            -60.9363   XZ=              8.5418   YZ=            -27.4962

 Normal termination of Gaussian 16 at Fri Feb 10 22:23:03 2023.
