 Gaussian 16, Revision A.03,

 ---------------------------------------------------------------------
 # polar def2tzvp empiricaldispersion=gd3bj int=grid=ultrafine pbe1pbe
 ---------------------------------------------------------------------

 ---------
 7aba_II_S
 ---------
 Symbolic Z-matrix:
 Charge =  0 Multiplicity = 1

 SCF Done:  E(RPBE1PBE) =  -3536.21539109     A.U. after   32 cycles

  Exact polarizability: 854.205  24.613 937.702   1.842 -47.846 294.178
 Approx polarizability:1658.168 680.9424918.075 -68.733-451.759 542.549

 Normal termination of Gaussian 16 at Fri Feb  3 09:32:57 2023.

 ----------------------------------------------------------------------
 # PBE1PBE/def2TZVP empiricaldispersion=GD3BJ int=(grid=ultrafine) geom
 =check guess=read pop=nbo
 ----------------------------------------------------------------------

 -------------
 7abb_II_S_nbo
 -------------
 Structure from the checkpoint file:  "7abb_II_S.chk"
 Charge =  0 Multiplicity = 1

 SCF Done:  E(RPBE1PBE) =  -3536.21539109     A.U. after    3 cycles

 Summary of Natural Population Analysis:

                                       Natural Population
                Natural  -----------------------------------------------
    Atom  No    Charge         Core      Valence    Rydberg      Total
 -----------------------------------------------------------------------
      C    1   -0.73709      1.99926     4.72814    0.00969     6.73709
      S    2    0.36999      9.99846     5.58708    0.04446    15.63001
      H    3    0.24057      0.00000     0.75767    0.00176     0.75943
      H    4    0.22562      0.00000     0.77308    0.00131     0.77438
      H    5    0.12641      0.00000     0.86521    0.00838     0.87359
     Fe    6    0.26172     17.99025     7.72034    0.02769    25.73828
      C    7   -0.25938      1.99893     4.24264    0.01781     6.25938
      C    8   -0.22295      1.99900     4.20787    0.01608     6.22295
      C    9   -0.25926      1.99896     4.24354    0.01676     6.25926
      C   10   -0.22348      1.99895     4.20773    0.01681     6.22348
      N   11   -0.42548      1.99941     5.38148    0.04460     7.42548
      C   12    0.16635      1.99904     3.81400    0.02061     5.83365
      C   13   -0.03498      1.99868     4.01835    0.01795     6.03498
      C   14   -0.01380      1.99877     3.99875    0.01628     6.01380
      C   15    0.14436      1.99909     3.83553    0.02101     5.85564
      C   16   -0.61158      1.99918     4.60590    0.00651     6.61158
      C   17   -0.38934      1.99903     4.37865    0.01165     6.38934
      C   18   -0.47927      1.99902     4.46464    0.01561     6.47927
      C   19    0.76967      1.99957     3.19415    0.03661     5.23033
      O   20   -0.56387      1.99978     6.54011    0.02397     8.56387
      O   21   -0.68650      1.99960     6.65865    0.02825     8.68650
      N   22   -0.46522      1.99939     5.42092    0.04491     7.46522
      C   23    0.16559      1.99912     3.81389    0.02140     5.83441
      C   24   -0.04715      1.99874     4.03125    0.01716     6.04715
      C   25   -0.08134      1.99876     4.06176    0.02082     6.08134
      C   26    0.17924      1.99905     3.80059    0.02113     5.82076
      C   27   -0.59855      1.99914     4.59231    0.00709     6.59855
      C   28   -0.15967      1.99893     4.14131    0.01943     6.15967
      C   29   -0.63802      1.99923     4.63174    0.00705     6.63802
      N   30   -0.38518      1.99938     5.34242    0.04339     7.38518
      C   31    0.16867      1.99908     3.81120    0.02105     5.83133
      C   32   -0.05033      1.99879     4.03410    0.01744     6.05033
      C   33   -0.07083      1.99877     4.05325    0.01881     6.07083
      C   34    0.18970      1.99909     3.79018    0.02104     5.81030
      C   35   -0.60107      1.99915     4.59475    0.00718     6.60107
      C   36   -0.11934      1.99897     4.10297    0.01740     6.11934
      C   37   -0.63200      1.99915     4.62524    0.00761     6.63200
      N   38   -0.43446      1.99937     5.39142    0.04368     7.43446
      C   39    0.14324      1.99896     3.83814    0.01966     5.85676
      C   40    0.01303      1.99913     3.97210    0.01574     5.98697
      C   41   -0.02121      1.99915     4.00482    0.01724     6.02121
      C   42    0.15802      1.99899     3.82321    0.01979     5.84198
      C   43   -0.61729      1.99916     4.61183    0.00630     6.61729
      C   44   -0.40324      1.99910     4.39260    0.01154     6.40324
      C   45   -0.48024      1.99903     4.46557    0.01564     6.48024
      C   46    0.77307      1.99957     3.19043    0.03693     5.22693
      O   47   -0.55911      1.99978     6.53564    0.02368     8.55911
      O   48   -0.69091      1.99957     6.66132    0.03001     8.69091
      H   49    0.19867      0.00000     0.79914    0.00219     0.80133
      H   50    0.20293      0.00000     0.79425    0.00282     0.79707
      H   51    0.21501      0.00000     0.77963    0.00536     0.78499
      H   52    0.20849      0.00000     0.78784    0.00367     0.79151
      H   53    0.21180      0.00000     0.78673    0.00147     0.78820
      H   54    0.20453      0.00000     0.79418    0.00128     0.79547
      H   55    0.21328      0.00000     0.78528    0.00143     0.78672
      H   56    0.20001      0.00000     0.79756    0.00243     0.79999
      H   57    0.19918      0.00000     0.79870    0.00212     0.80082
      H   58    0.22307      0.00000     0.77567    0.00126     0.77693
      H   59    0.22452      0.00000     0.77428    0.00120     0.77548
      H   60    0.20744      0.00000     0.79103    0.00153     0.79256
      H   61    0.20817      0.00000     0.79013    0.00171     0.79183
      H   62    0.19865      0.00000     0.80021    0.00114     0.80135
      H   63    0.16720      0.00000     0.83005    0.00275     0.83280
      H   64    0.20666      0.00000     0.79078    0.00256     0.79334
      H   65    0.20566      0.00000     0.79317    0.00117     0.79434
      H   66    0.20068      0.00000     0.79787    0.00145     0.79932
      H   67    0.21031      0.00000     0.78800    0.00169     0.78969
      H   68    0.20608      0.00000     0.79238    0.00155     0.79392
      H   69    0.20623      0.00000     0.79263    0.00114     0.79377
      H   70    0.15774      0.00000     0.84005    0.00221     0.84226
      H   71    0.20504      0.00000     0.79354    0.00142     0.79496
      H   72    0.20386      0.00000     0.79432    0.00181     0.79614
      H   73    0.21276      0.00000     0.78584    0.00139     0.78724
      H   74    0.21220      0.00000     0.78638    0.00143     0.78780
      H   75    0.20706      0.00000     0.79178    0.00116     0.79294
      H   76    0.21450      0.00000     0.78413    0.00137     0.78550
      H   77    0.20944      0.00000     0.78857    0.00199     0.79056
      H   78    0.19877      0.00000     0.79853    0.00270     0.80123
      H   79    0.21930      0.00000     0.77944    0.00127     0.78070
      H   80    0.22448      0.00000     0.77419    0.00133     0.77552
      H   81    0.24148      0.00000     0.75751    0.00101     0.75852
      H   82    0.51997      0.00000     0.47760    0.00243     0.48003
      H   83    0.52172      0.00000     0.47575    0.00253     0.47828
 =======================================================================
   * Total *   -0.00000    113.95154   235.02561    1.02285   350.00000

 Normal termination of Gaussian 16 at Fri Feb  3 10:13:46 2023.
 Gaussian 16:  ES64L-G16RevA.03 25-Dec-2016

 ----------------------------------------------------------------------
 # PBE1PBE/def2TZVP empiricaldispersion=GD3BJ int=(grid=ultrafine) geom
 =check guess=read scrf=(smd,solvent=Chloroform)
 ----------------------------------------------------------------------

 --------------
 7abb_II_S_solv
 --------------
 Structure from the checkpoint file:  "7abb_II_S.chk"
 Charge =  0 Multiplicity = 1

                         Standard orientation:
 ---------------------------------------------------------------------
 Center     Atomic      Atomic             Coordinates (Angstroms)
 Number     Number       Type             X           Y           Z
 ---------------------------------------------------------------------
      1          6           0       -0.099815   -0.741131    2.868263
      2         16           0       -1.423706    0.139127    2.014664
      3          1           0        0.227513   -1.563284    2.266747
      4          1           0       -0.461893   -1.107320    3.806189
      5          1           0       -2.337969   -0.615733    1.828081
      6         26           0       -1.025414   -0.053066   -0.216733
      7          6           0        2.410616    0.119091   -0.148010
      8          6           0       -0.789278   -3.469434   -0.131450
      9          6           0       -4.449014   -0.247233   -0.242724
     10          6           0       -1.240077    3.314351   -0.674279
     11          7           0        0.489991   -1.382738   -0.170891
     12          6           0        1.859113   -1.126380   -0.096827
     13          6           0        2.623336   -2.351303    0.019404
     14          6           0        1.708493   -3.337365    0.033159
     15          6           0        0.393101   -2.757699   -0.086525
     16          6           0        1.955411   -4.854175    0.120335
     17          6           0        4.182832   -2.483606    0.151075
     18          6           0        4.912583   -2.563023   -1.183552
     19          6           0        6.401750   -2.744028   -0.943018
     20          8           0        7.114661   -2.699264   -1.971834
     21          8           0        6.806125   -2.922694    0.235728
     22          7           0       -2.357297   -1.556886   -0.248840
     23          6           0       -2.064224   -2.905433   -0.160252
     24          6           0       -3.307601   -3.611986   -0.083719
     25          6           0       -4.313175   -2.717926   -0.089260
     26          6           0       -3.742102   -1.422019   -0.217716
     27          6           0       -3.342756   -5.148948    0.032982
     28          6           0       -5.814049   -2.848802   -0.052365
     29          6           0       -6.358155   -4.174454    0.372104
     30          7           0       -2.541438    1.287127   -0.453129
     31          6           0       -3.882130    0.999743   -0.336288
     32          6           0       -4.627983    2.229525   -0.362337
     33          6           0       -3.749448    3.251206   -0.475380
     34          6           0       -2.435849    2.654854   -0.552528
     35          6           0       -6.151506    2.298646   -0.240820
     36          6           0       -3.969218    4.769311   -0.583589
     37          6           0       -5.287135    5.376666   -0.103393
     38          7           0        0.324537    1.405425   -0.403278
     39          6           0       -0.009197    2.748106   -0.581492
     40          6           0        1.205216    3.499242   -0.636041
     41          6           0        2.340441    2.549424   -0.482733
     42          6           0        1.700094    1.262464   -0.320043
     43          6           0        1.297534    5.017035   -0.837559
     44          6           0        3.847411    2.859317   -0.482445
     45          6           0        4.269936    3.073162    0.950767
     46          6           0        5.770336    3.280985    1.024580
     47          8           0        6.259614    3.752494    2.073402
     48          8           0        6.445156    2.967747    0.023276
     49          1           0        3.383677    0.193162   -0.053979
     50          1           0       -0.728005   -4.447712   -0.143132
     51          1           0       -5.426892   -0.300902   -0.191104
     52          1           0       -1.276876    4.279612   -0.843134
     53          1           0        1.521632   -5.210259    0.923349
     54          1           0        2.918963   -5.025581    0.166546
     55          1           0        1.584177   -5.291048   -0.674614
     56          1           0        4.382121   -3.285271    0.659865
     57          1           0        4.517774   -1.716114    0.640182
     58          1           0        4.762834   -1.744137   -1.682737
     59          1           0        4.574113   -3.316135   -1.692729
     60          1           0       -3.822312   -5.519223   -0.724659
     61          1           0       -3.791898   -5.400450    0.855071
     62          1           0       -2.436412   -5.493245    0.042080
     63          1           0       -6.168916   -2.628224   -0.916627
     64          1           0       -6.046350   -4.861525   -0.238223
     65          1           0       -7.327273   -4.145602    0.359478
     66          1           0       -6.051662   -4.376908    1.270560
     67          1           0       -6.520392    2.712902   -1.036572
     68          1           0       -6.390518    2.824176    0.537939
     69          1           0       -6.508827    1.401769   -0.148697
     70          1           0       -3.241372    5.222307   -0.152932
     71          1           0       -5.109538    6.017527    0.602926
     72          1           0       -5.862850    4.673702    0.235541
     73          1           0       -5.725633    5.825239   -0.843389
     74          1           0        1.747402    5.421729   -0.067430
     75          1           0        0.395708    5.390924   -0.923010
     76          1           0        1.808740    5.207229   -1.651500
     77          1           0        4.018605    3.662087   -0.998879
     78          1           0        4.337862    2.112813   -0.862131
     79          1           0        4.026676    2.295505    1.476338
     80          1           0        3.819015    3.855491    1.305422
     81          1           0        0.719958   -0.074754    3.038008
     82          1           0        6.863863    2.105092   -0.022668
     83          1           0        7.177077   -3.770023    0.492687
 ---------------------------------------------------------------------

 SCF Done:  E(RPBE1PBE) =  -3536.27239297     A.U. after   17 cycles

 The electronic state is 1-A.
 Alpha  occ. eigenvalues -- -256.32868 -89.03380 -30.09563 -25.92455 -25.92129
 Alpha  occ. eigenvalues --  -25.91848 -19.26165 -19.25113 -19.19101 -19.18665
 Alpha  occ. eigenvalues --  -14.39028 -14.38536 -14.37566 -14.37188 -10.36206
 Alpha  occ. eigenvalues --  -10.35477 -10.25581 -10.25516 -10.25494 -10.25281
 Alpha  occ. eigenvalues --  -10.25227 -10.25024 -10.24984 -10.24685 -10.24052
 Alpha  occ. eigenvalues --  -10.23562 -10.23416 -10.23166 -10.22999 -10.22865
 Alpha  occ. eigenvalues --  -10.22621 -10.21941 -10.21915 -10.21612 -10.21535
 Alpha  occ. eigenvalues --  -10.21083 -10.20975 -10.20589 -10.20589 -10.20426
 Alpha  occ. eigenvalues --  -10.20267 -10.20013 -10.19898 -10.18198 -10.17704
 Alpha  occ. eigenvalues --  -10.17081 -10.16953 -10.16724 -10.15792  -8.01696
 Alpha  occ. eigenvalues --   -5.95296  -5.94950  -5.94588  -3.44332  -2.20592
 Alpha  occ. eigenvalues --   -2.19725  -2.19248  -1.16726  -1.16609  -1.03698
 Alpha  occ. eigenvalues --   -1.03173  -0.98624  -0.97918  -0.96941  -0.95821
 Alpha  occ. eigenvalues --   -0.85268  -0.84608  -0.84215  -0.82972  -0.82482
 Alpha  occ. eigenvalues --   -0.82356  -0.82270  -0.81860  -0.80443  -0.79261
 Alpha  occ. eigenvalues --   -0.78131  -0.77721  -0.77073  -0.75279  -0.74064
 Alpha  occ. eigenvalues --   -0.73416  -0.73357  -0.70785  -0.70307  -0.69296
 Alpha  occ. eigenvalues --   -0.69252  -0.67853  -0.67451  -0.66889  -0.66406
 Alpha  occ. eigenvalues --   -0.64316  -0.63568  -0.59957  -0.59783  -0.57305
 Alpha  occ. eigenvalues --   -0.56174  -0.55736  -0.54361  -0.53920  -0.53539
 Alpha  occ. eigenvalues --   -0.53274  -0.52572  -0.52048  -0.51929  -0.51251
 Alpha  occ. eigenvalues --   -0.49977  -0.49899  -0.49459  -0.49114  -0.48315
 Alpha  occ. eigenvalues --   -0.48141  -0.47512  -0.46837  -0.46689  -0.46631
 Alpha  occ. eigenvalues --   -0.46179  -0.46036  -0.45140  -0.44973  -0.44890
 Alpha  occ. eigenvalues --   -0.44726  -0.44342  -0.44168  -0.44020  -0.43803
 Alpha  occ. eigenvalues --   -0.43574  -0.43387  -0.43235  -0.42664  -0.42440
 Alpha  occ. eigenvalues --   -0.41901  -0.41883  -0.41502  -0.41099  -0.41018
 Alpha  occ. eigenvalues --   -0.40771  -0.40384  -0.40193  -0.39946  -0.39550
 Alpha  occ. eigenvalues --   -0.38968  -0.38755  -0.38359  -0.37778  -0.37245
 Alpha  occ. eigenvalues --   -0.36828  -0.36744  -0.36058  -0.35899  -0.35480
 Alpha  occ. eigenvalues --   -0.35060  -0.34967  -0.34668  -0.34298  -0.34101
 Alpha  occ. eigenvalues --   -0.34034  -0.33846  -0.32202  -0.31616  -0.30409
 Alpha  occ. eigenvalues --   -0.29940  -0.29513  -0.29271  -0.28671  -0.28279
 Alpha  occ. eigenvalues --   -0.27487  -0.25955  -0.25799  -0.23890  -0.21904
 Alpha  occ. eigenvalues --   -0.21179  -0.20656  -0.20234  -0.19946  -0.15372
 Alpha virt. eigenvalues --   -0.12403  -0.07434  -0.06882  -0.03168  -0.01569
 Alpha virt. eigenvalues --   -0.01188  -0.00826   0.02175   0.03219   0.03459
 Alpha virt. eigenvalues --    0.03998   0.04285   0.05071   0.06004   0.06562

 Mulliken charges:
               1
     1  C   -0.349925
     2  S   -0.019470
     3  H    0.160900
     4  H    0.176520
     5  H    0.184980
     6  Fe  -0.098027
     7  C   -0.525918
     8  C   -0.523913
     9  C   -0.496193
    10  C   -0.527109
    11  N   -0.114387
    12  C    0.309122
    13  C    0.003433
    14  C   -0.049487
    15  C    0.185442
    16  C   -0.380445
    17  C   -0.392120
    18  C   -0.196338
    19  C    0.299428
    20  O   -0.392492
    21  O   -0.374578
    22  N   -0.128053
    23  C    0.285884
    24  C   -0.131951
    25  C   -0.059662
    26  C    0.204235
    27  C   -0.367056
    28  C   -0.289997
    29  C   -0.362231
    30  N   -0.073262
    31  C    0.332111
    32  C   -0.143962
    33  C   -0.133596
    34  C    0.280053
    35  C   -0.387236
    36  C   -0.169991
    37  C   -0.348519
    38  N   -0.068742
    39  C    0.325015
    40  C   -0.109272
    41  C   -0.071305
    42  C    0.273934
    43  C   -0.380171
    44  C   -0.254611
    45  C   -0.234795
    46  C    0.300461
    47  O   -0.391679
    48  O   -0.368467
    49  H    0.155335
    50  H    0.164332
    51  H    0.163621
    52  H    0.155063
    53  H    0.153014
    54  H    0.141890
    55  H    0.152833
    56  H    0.136130
    57  H    0.139646
    58  H    0.142514
    59  H    0.147859
    60  H    0.153876
    61  H    0.147919
    62  H    0.134247
    63  H    0.143313
    64  H    0.142343
    65  H    0.144417
    66  H    0.127682
    67  H    0.157361
    68  H    0.150207
    69  H    0.139566
    70  H    0.140606
    71  H    0.140961
    72  H    0.125587
    73  H    0.143569
    74  H    0.147562
    75  H    0.134967
    76  H    0.151173
    77  H    0.145521
    78  H    0.122447
    79  H    0.148935
    80  H    0.141426
    81  H    0.167234
    82  H    0.395598
    83  H    0.394688
 Sum of Mulliken charges =  -0.00000

 Dipole moment (field-independent basis, Debye):
    X=              0.8075    Y=             -6.5117    Z=              3.3257  Tot=              7.3563
 Quadrupole moment (field-independent basis, Debye-Ang):
   XX=           -295.6123   YY=           -246.2069   ZZ=           -290.2823
   XY=            -36.7297   XZ=              3.5966   YZ=            -21.1004

 Normal termination of Gaussian 16 at Fri Feb  3 14:16:46 2023.
