 Gaussian 16, Revision A.03,
 Gaussian 16:  ES64L-G16RevA.03 25-Dec-2016

 ----------------------------------------------------------------------
 # PBE1PBE/def2TZVP scf=qc empiricaldispersion=GD3BJ scf=maxcycle=999 g
 eom=check pop=nbo
 ----------------------------------------------------------------------

 ----------
 2v07_III_H
 ----------
 Structure from the checkpoint file:  "2v07_III_Hn.chk"
 Charge =  1 Multiplicity = 6

                         Standard orientation:
 ---------------------------------------------------------------------
 Center     Atomic      Atomic             Coordinates (Angstroms)
 Number     Number       Type             X           Y           Z
 ---------------------------------------------------------------------
      1          6           0        2.635877   -1.638983    4.958577
      2          6           0        1.801230   -1.148534    3.811592
      3          7           0        0.450590   -0.932798    3.936438
      4          6           0        2.112573   -0.858916    2.521461
      5          6           0       -0.043074   -0.522250    2.774784
      6          7           0        0.939024   -0.489112    1.891057
      7          6           0       -1.294123    2.199588   -2.802054
      8          6           0       -0.592451    0.900961   -3.199964
      9         16           0        0.908497    0.606370   -2.317779
     10          6           0        1.693958   -0.650623   -3.275358
     11         26           0        0.848699   -0.019251   -0.058183
     12          6           0       -2.571388   -0.385287   -0.086204
     13          6           0        1.199898   -3.342925   -0.711993
     14          6           0        4.239082    0.409714   -0.370972
     15          6           0        0.541183    3.189911    0.910480
     16          7           0       -0.433139   -1.551629   -0.366872
     17          6           0       -1.817670   -1.506003   -0.285426
     18          6           0       -2.336442   -2.851345   -0.445198
     19          6           0       -1.293800   -3.665277   -0.646106
     20          6           0       -0.067681   -2.868655   -0.595232
     21          6           0       -1.326753   -5.184854   -0.865195
     22          6           0       -3.834926   -3.193411   -0.365303
     23          6           0       -4.268974   -3.131499    1.104885
     24          6           0       -5.762668   -3.289014    1.310033
     25          8           0       -6.522952   -3.084826    0.329892
     26          8           0       -6.204957   -3.577914    2.477059
     27          7           0        2.431507   -1.216684   -0.455735
     28          6           0        2.352638   -2.572832   -0.660349
     29          6           0        3.689220   -3.071583   -0.880976
     30          6           0        4.537472   -2.032681   -0.797047
     31          6           0        3.748648   -0.850893   -0.541728
     32          6           0        3.976966   -4.552128   -1.159422
     33          6           0        6.050732   -1.996162   -1.023151
     34          6           0        6.413860   -2.412289   -2.276366
     35          7           0        2.162400    1.511174    0.212943
     36          6           0        3.508630    1.478317    0.042338
     37          6           0        4.039829    2.775043    0.426839
     38          6           0        3.015409    3.559141    0.787093
     39          6           0        1.808123    2.765817    0.647298
     40          6           0        5.514830    3.139536    0.398534
     41          6           0        3.060123    5.004683    1.291858
     42          6           0        3.739480    5.970401    0.646033
     43          7           0       -0.726751    1.175356    0.343093
     44          6           0       -0.602949    2.520540    0.667553
     45          6           0       -1.918589    3.140556    0.717654
     46          6           0       -2.867797    2.038633    0.385826
     47          6           0       -2.071926    0.864436    0.183021
     48          6           0       -2.259970    4.610773    1.002925
     49          6           0       -4.382165    2.206095    0.284659
     50          6           0       -4.694381    2.682751   -1.140094
     51          6           0       -6.183836    2.915351   -1.362904
     52          8           0       -6.609867    3.117686   -2.516585
     53          8           0       -6.961065    2.922068   -0.399338
     54          1           0        2.191130   -2.519866    5.372276
     55          1           0        3.621663   -1.866932    4.610488
     56          1           0        2.689857   -0.879792    5.710651
     57          1           0        3.084370   -0.907845    2.076359
     58          1           0       -0.079529   -1.064784    4.774027
     59          1           0       -1.063612   -0.262105    2.585767
     60          1           0        0.981994   -1.086130   -3.944941
     61          1           0        2.496470   -0.221268   -3.837966
     62          1           0        2.079680   -1.406660   -2.623800
     63          1           0       -2.132699    1.974733   -2.176650
     64          1           0       -0.609621    2.826045   -2.269224
     65          1           0       -1.631158    2.706911   -3.681787
     66          1           0       -1.259613    0.083844   -3.020756
     67          1           0       -0.371474    0.939208   -4.246199
     68          1           0        5.976318    2.830032    1.312939
     69          1           0        5.988321    2.646528   -0.424660
     70          1           0        5.618423    4.198694    0.287395
     71          1           0        5.276656    0.569493   -0.577877
     72          1           0        3.116015   -5.005160   -1.604871
     73          1           0        4.808978   -4.634320   -1.827180
     74          1           0        4.206649   -5.049796   -0.240470
     75          1           0        7.282735   -3.033028   -2.208254
     76          1           0        5.611431   -2.968688   -2.713890
     77          1           0        6.631125   -1.560271   -2.886088
     78          1           0        6.751755   -1.678671   -0.279735
     79          1           0        3.369063    6.928455    0.945735
     80          1           0        4.779150    5.898194    0.888463
     81          1           0        3.610355    5.852351   -0.409567
     82          1           0        2.533122    5.255248    2.188734
     83          1           0        0.443750    4.157143    1.357547
     84          1           0       -3.097948    4.660090    1.666447
     85          1           0       -1.417816    5.091117    1.455636
     86          1           0       -2.501949    5.105253    0.085409
     87          1           0       -4.351927    1.944375   -1.834665
     88          1           0       -4.170501    3.597983   -1.321202
     89          1           0       -4.865278    1.269406    0.469366
     90          1           0       -4.716184    2.934468    0.993746
     91          1           0       -7.875426    2.654881   -0.518317
     92          1           0       -3.634720   -0.489335   -0.144511
     93          1           0        1.318960   -4.396549   -0.855522
     94          1           0       -2.277197   -5.466620   -1.267891
     95          1           0       -0.552729   -5.463424   -1.549435
     96          1           0       -1.173294   -5.683322    0.069086
     97          1           0       -4.000532   -4.178552   -0.748671
     98          1           0       -4.397172   -2.485007   -0.937091
     99          1           0       -3.767493   -3.909808    1.641217
    100          1           0       -3.967094   -2.188194    1.509787
    101          1           0       -7.459011   -3.286602    0.398294
 ---------------------------------------------------------------------

 SCF Done:  E(UPBE1PBE) =  -3880.38336556     a.u. after   43 cycles

 Alpha virt. eigenvalues --    0.94359   0.94779   0.94970   0.95388   0.95462
 Alpha virt. eigenvalues --    0.95998   0.96197   0.96520   0.96729   0.96838
 Alpha virt. eigenvalues --    0.97044   0.97339   0.97514   0.97534   0.97745

  Beta  occ. eigenvalues -- -256.50811 -89.11397 -30.25341 -26.08691 -26.08648
  Beta  occ. eigenvalues --  -26.07588 -19.34732 -19.33567 -19.24625 -19.23941
  Beta  occ. eigenvalues --  -14.54716 -14.48988 -14.48813 -14.48776 -14.48606
  Beta  occ. eigenvalues --  -14.48468 -10.43130 -10.42079 -10.38666 -10.36043
  Beta  occ. eigenvalues --  -10.35764 -10.35699 -10.35614 -10.35610 -10.35396
  Beta  occ. eigenvalues --  -10.35386 -10.35166 -10.35090 -10.34145 -10.33702
  Beta  occ. eigenvalues --  -10.33692 -10.33135 -10.32654 -10.32585 -10.32491
  Beta  occ. eigenvalues --  -10.32429 -10.32297 -10.32226 -10.32092 -10.32028
  Beta  occ. eigenvalues --  -10.31864 -10.31817 -10.31801 -10.31788 -10.31748
  Beta  occ. eigenvalues --  -10.31748 -10.31563 -10.31508 -10.30760 -10.30498
  Beta  occ. eigenvalues --  -10.30296 -10.30208 -10.30150 -10.29686 -10.29049
  Beta  occ. eigenvalues --  -10.28188 -10.27857  -8.09553  -6.03201  -6.02875
  Beta  occ. eigenvalues --   -6.02326  -3.55960  -2.32003  -2.31903  -2.28136
  Beta  occ. eigenvalues --   -1.24849  -1.24479  -1.16614  -1.09233  -1.08894
  Beta  occ. eigenvalues --   -1.08050  -1.07989  -1.07686  -1.06334  -1.01177
  Beta  occ. eigenvalues --   -0.94997  -0.94218  -0.93228  -0.92762  -0.92472
  Beta  occ. eigenvalues --   -0.92148  -0.91814  -0.91625  -0.90891  -0.88693
  Beta  occ. eigenvalues --   -0.88082  -0.87467  -0.87334  -0.86761  -0.86297
  Beta  occ. eigenvalues --   -0.84362  -0.82216  -0.81930  -0.81817  -0.81244
  Beta  occ. eigenvalues --   -0.79404  -0.78536  -0.77915  -0.76710  -0.76609
  Beta  occ. eigenvalues --   -0.76036  -0.74898  -0.74083  -0.73936  -0.72394
  Beta  occ. eigenvalues --   -0.70640  -0.70167  -0.69939  -0.69722  -0.69032
  Beta  occ. eigenvalues --   -0.66720  -0.66210  -0.65010  -0.64452  -0.63666
  Beta  occ. eigenvalues --   -0.62736  -0.62270  -0.61989  -0.60311  -0.60197
  Beta  occ. eigenvalues --   -0.59341  -0.59226  -0.59135  -0.58479  -0.58402
  Beta  occ. eigenvalues --   -0.57931  -0.57780  -0.57559  -0.56959  -0.56805
  Beta  occ. eigenvalues --   -0.56331  -0.55929  -0.55668  -0.55200  -0.54913
  Beta  occ. eigenvalues --   -0.54504  -0.54448  -0.54224  -0.54155  -0.54038
  Beta  occ. eigenvalues --   -0.53772  -0.53449  -0.53299  -0.53002  -0.52896
  Beta  occ. eigenvalues --   -0.52693  -0.52392  -0.52188  -0.52118  -0.51970
  Beta  occ. eigenvalues --   -0.51532  -0.51456  -0.51157  -0.50903  -0.50732
  Beta  occ. eigenvalues --   -0.50432  -0.50082  -0.49901  -0.49809  -0.49445
  Beta  occ. eigenvalues --   -0.49337  -0.48802  -0.48570  -0.48366  -0.48133
  Beta  occ. eigenvalues --   -0.47816  -0.47685  -0.47348  -0.47156  -0.47040
  Beta  occ. eigenvalues --   -0.46936  -0.46436  -0.46386  -0.45898  -0.45679
  Beta  occ. eigenvalues --   -0.45288  -0.45062  -0.44813  -0.44200  -0.43669
  Beta  occ. eigenvalues --   -0.43466  -0.43458  -0.43081  -0.42894  -0.42504
  Beta  occ. eigenvalues --   -0.41911  -0.40655  -0.39190  -0.38992  -0.38869
  Beta  occ. eigenvalues --   -0.38749  -0.36397  -0.36180  -0.35427  -0.34946
  Beta  occ. eigenvalues --   -0.34803  -0.34505  -0.34163  -0.33387  -0.32526
  Beta  occ. eigenvalues --   -0.30026  -0.29689
  Beta virt. eigenvalues --   -0.19614  -0.19137  -0.15453  -0.15260  -0.13391
  Beta virt. eigenvalues --   -0.12560  -0.10728  -0.10089  -0.09298  -0.07809
  Beta virt. eigenvalues --   -0.06994  -0.06747  -0.06455  -0.05676  -0.05523

 Mulliken charges and spin densities:
               1          2
     1  C   -0.375895   0.001291
     2  C    0.153542   0.002714
     3  N   -0.200042   0.005635
     4  C   -0.200341   0.004317
     5  C    0.027532   0.012825
     6  N    0.025722   0.052552
     7  C   -0.310842  -0.000246
     8  C   -0.202273   0.005843
     9  S    0.015064   0.089883
    10  C   -0.335037   0.001625
    11  Fe  -0.271909   2.928582
    12  C   -0.651583  -0.016506
    13  C   -0.524902   0.020775
    14  C   -0.450796   0.018901
    15  C   -0.501684  -0.010797
    16  N    0.069490  -0.052122
    17  C    0.278774   0.021368
    18  C    0.033834  -0.000365
    19  C   -0.091551   0.016160
    20  C    0.273628  -0.004370
    21  C   -0.391958  -0.001385
    22  C   -0.287195  -0.000669
    23  C   -0.192300   0.000373
    24  C    0.265328   0.000004
    25  O   -0.323702   0.000002
    26  O   -0.389845   0.000069
    27  N   -0.046046  -0.041383
    28  C    0.289069  -0.017188
    29  C   -0.099052   0.086635
    30  C    0.078168  -0.101382
    31  C    0.104761   0.018729
    32  C   -0.348998  -0.003825
    33  C   -0.229533   0.960557
    34  C   -0.333969  -0.066355
    35  N    0.062424  -0.049487
    36  C    0.298483  -0.009700
    37  C   -0.045999   0.145189
    38  C   -0.005698  -0.140205
    39  C    0.247038   0.042110
    40  C   -0.371920  -0.008411
    41  C   -0.248062   0.936559
    42  C   -0.331754  -0.074459
    43  N    0.016972  -0.062391
    44  C    0.313000   0.028358
    45  C   -0.073777   0.018476
    46  C    0.069254   0.025382
    47  C    0.177872   0.020702
    48  C   -0.378487  -0.001761
    49  C   -0.267613  -0.003289
    50  C   -0.200519   0.001500
    51  C    0.254742   0.000247
    52  O   -0.362249   0.000279
    53  O   -0.320211  -0.000012
    54  H    0.147816   0.000121
    55  H    0.148820  -0.000001
    56  H    0.153965   0.000093
    57  H    0.155727   0.000745
    58  H    0.247371   0.001936
    59  H    0.179298   0.000536
    60  H    0.159405   0.000242
    61  H    0.155993   0.002461
    62  H    0.145058   0.001951
    63  H    0.062325  -0.000073
    64  H    0.135565   0.000174
    65  H    0.150953   0.000045
    66  H    0.134673   0.002169
    67  H    0.158993   0.005457
    68  H    0.156037   0.006331
    69  H    0.135824   0.002355
    70  H    0.128828   0.002263
    71  H    0.135657   0.002003
    72  H    0.130580   0.000490
    73  H    0.140203   0.001366
    74  H    0.157660   0.003389
    75  H    0.138253   0.033755
    76  H    0.130919   0.007462
    77  H    0.142386   0.075184
    78  H    0.155903  -0.047759
    79  H    0.137594   0.009151
    80  H    0.138692   0.086258
    81  H    0.141041   0.037813
    82  H    0.139281  -0.047639
    83  H    0.107476   0.007456
    84  H    0.149243   0.000540
    85  H    0.136869   0.000167
    86  H    0.154424   0.001086
    87  H    0.141783  -0.000032
    88  H    0.144198  -0.000044
    89  H    0.118105   0.000255
    90  H    0.136043   0.000489
    91  H    0.359230   0.000040
    92  H    0.136346   0.000380
    93  H    0.132525  -0.001073
    94  H    0.143983   0.000037
    95  H    0.136855   0.000337
    96  H    0.157626   0.000859
    97  H    0.128462  -0.000111
    98  H    0.140089   0.000055
    99  H    0.147472  -0.000005
   100  H    0.140415  -0.000056
   101  H    0.355081   0.000003
 Sum of Mulliken charges =   1.00000   5.00000

 Dipole moment (field-independent basis, Debye):
    X=              4.7964    Y=             -1.4646    Z=              3.0145  Tot=              5.8512
 Quadrupole moment (field-independent basis, Debye-Ang):
   XX=           -238.1622   YY=           -265.6839   ZZ=           -292.1383
   XY=              1.7406   XZ=             -0.0409   YZ=             22.2980

 Summary of Natural Population Analysis:

                                       Natural Population
                Natural  -----------------------------------------------
    Atom  No    Charge         Core      Valence    Rydberg      Total
 -----------------------------------------------------------------------
      C    1   -0.32051      0.99969     2.31773    0.00309     3.32051
      C    2    0.06367      0.99956     1.92794    0.00883     2.93633
      N    3   -0.23204      0.99968     2.72268    0.00968     3.73204
      C    4   -0.03178      0.99943     2.02318    0.00917     3.03178
      C    5    0.11385      0.99964     1.87585    0.01066     2.88615
      N    6   -0.15494      0.99970     2.63440    0.02084     3.65494
      C    7   -0.30707      0.99972     2.30149    0.00586     3.30707
      C    8   -0.26941      0.99966     2.26034    0.00941     3.26941
      S    9    0.33932      4.99923     2.64091    0.02054     7.66068
      C   10   -0.37868      0.99965     2.37005    0.00898     3.37868
     Fe   11    1.51539      8.99569     2.45866    0.03026    11.48461
      C   12   -0.13293      0.99944     2.12449    0.00900     3.13293
      C   13   -0.11457      0.99945     2.10653    0.00859     3.11457
      C   14   -0.11440      0.99944     2.10649    0.00847     3.11440
      C   15   -0.11731      0.99943     2.10922    0.00866     3.11731
      N   16   -0.21024      0.99969     2.68805    0.02250     3.71024
      C   17    0.08907      0.99949     1.90078    0.01066     2.91093
      C   18   -0.00879      0.99938     2.00002    0.00940     3.00879
      C   19    0.00782      0.99939     1.98477    0.00802     2.99218
      C   20    0.08116      0.99950     1.90840    0.01095     2.91884
      C   21   -0.31962      0.99970     2.31644    0.00349     3.31962
      C   22   -0.21356      0.99968     2.20707    0.00681     3.21356
      C   23   -0.24708      0.99962     2.23898    0.00848     3.24708
      C   24    0.37815      0.99977     1.60460    0.01747     2.62185
      O   25   -0.32295      0.99981     3.31019    0.01295     4.32295
      O   26   -0.30530      0.99991     3.29419    0.01120     4.30530
      N   27   -0.21976      0.99969     2.69723    0.02285     3.71976
      C   28    0.07370      0.99952     1.91550    0.01129     2.92630
      C   29    0.03615      0.99938     1.95608    0.00839     2.96385
      C   30   -0.07476      0.99939     2.06547    0.00991     3.07476
      C   31    0.09531      0.99949     1.89468    0.01053     2.90469
      C   32   -0.31972      0.99969     2.31647    0.00356     3.31972
      C   33    0.40096      0.99960     1.59206    0.00738     2.59904
      C   34   -0.36413      0.99965     2.35695    0.00753     3.36413
      N   35   -0.20380      0.99968     2.68106    0.02307     3.70380
      C   36    0.07730      0.99951     1.91234    0.01085     2.92270
      C   37    0.06950      0.99935     1.92304    0.00811     2.93050
      C   38   -0.08889      0.99938     2.07945    0.01006     3.08889
      C   39    0.11600      0.99950     1.87384    0.01065     2.88400
      C   40   -0.32248      0.99970     2.31922    0.00356     3.32248
      C   41    0.39153      0.99957     1.60121    0.00768     2.60847
      C   42   -0.36962      0.99962     2.36178    0.00822     3.36962
      N   43   -0.22596      0.99970     2.70387    0.02240     3.72596
      C   44    0.08201      0.99944     1.90753    0.01101     2.91799
      C   45    0.01903      0.99958     1.97332    0.00807     2.98097
      C   46    0.01200      0.99955     1.97990    0.00854     2.98800
      C   47    0.07308      0.99945     1.91627    0.01120     2.92692
      C   48   -0.32307      0.99968     2.31977    0.00362     3.32307
      C   49   -0.21907      0.99966     2.21277    0.00664     3.21907
      C   50   -0.24343      0.99963     2.23577    0.00804     3.24343
      C   51    0.37910      0.99978     1.60245    0.01868     2.62090
      O   52   -0.29966      0.99989     3.28749    0.01228     4.29966
      O   53   -0.32568      0.99980     3.31218    0.01371     4.32568
      H   54    0.11424      0.00000     0.38511    0.00064     0.38576
      H   55    0.11977      0.00000     0.37978    0.00045     0.38023
      H   56    0.11523      0.00000     0.38411    0.00065     0.38477
      H   57    0.11874      0.00000     0.38045    0.00081     0.38126
      H   58    0.21295      0.00000     0.28631    0.00074     0.28705
      H   59    0.11524      0.00000     0.38391    0.00085     0.38476
      H   60    0.11793      0.00000     0.38143    0.00064     0.38207
      H   61    0.11852      0.00000     0.38101    0.00047     0.38148
      H   62    0.12473      0.00000     0.37458    0.00070     0.37527
      H   63    0.10817      0.00000     0.39086    0.00096     0.39183
      H   64    0.10997      0.00000     0.38915    0.00088     0.39003
      H   65    0.11427      0.00000     0.38524    0.00050     0.38573
      H   66    0.11022      0.00000     0.38870    0.00108     0.38978
      H   67    0.11873      0.00000     0.38062    0.00065     0.38127
      H   68    0.11775      0.00000     0.38158    0.00067     0.38225
      H   69    0.11173      0.00000     0.38768    0.00059     0.38827
      H   70    0.11433      0.00000     0.38494    0.00073     0.38567
      H   71    0.11843      0.00000     0.38043    0.00115     0.38157
      H   72    0.10977      0.00000     0.38962    0.00061     0.39023
      H   73    0.11473      0.00000     0.38455    0.00072     0.38527
      H   74    0.11823      0.00000     0.38108    0.00068     0.38177
      H   75    0.13264      0.00000     0.36683    0.00053     0.36736
      H   76    0.11427      0.00000     0.38508    0.00065     0.38573
      H   77    0.15405      0.00000     0.34548    0.00047     0.34595
      H   78    0.08647      0.00000     0.41279    0.00073     0.41353
      H   79    0.12296      0.00000     0.37654    0.00050     0.37704
      H   80    0.15450      0.00000     0.34490    0.00060     0.34550
      H   81    0.13240      0.00000     0.36701    0.00060     0.36760
      H   82    0.08152      0.00000     0.41774    0.00074     0.41848
      H   83    0.11600      0.00000     0.38265    0.00136     0.38400
      H   84    0.11602      0.00000     0.38329    0.00070     0.38398
      H   85    0.11205      0.00000     0.38736    0.00059     0.38795
      H   86    0.11694      0.00000     0.38228    0.00078     0.38306
      H   87    0.11932      0.00000     0.38002    0.00066     0.38068
      H   88    0.12037      0.00000     0.37893    0.00071     0.37963
      H   89    0.10812      0.00000     0.39090    0.00098     0.39188
      H   90    0.11604      0.00000     0.38282    0.00114     0.38396
      H   91    0.26073      0.00000     0.23789    0.00138     0.23927
      H   92    0.11446      0.00000     0.38437    0.00116     0.38554
      H   93    0.11604      0.00000     0.38263    0.00133     0.38396
      H   94    0.11364      0.00000     0.38564    0.00072     0.38636
      H   95    0.11182      0.00000     0.38754    0.00064     0.38818
      H   96    0.11537      0.00000     0.38395    0.00068     0.38463
      H   97    0.11355      0.00000     0.38571    0.00073     0.38645
      H   98    0.11323      0.00000     0.38596    0.00080     0.38677
      H   99    0.12306      0.00000     0.37631    0.00063     0.37694
      H  100    0.11794      0.00000     0.38145    0.00061     0.38206
      H  101    0.26000      0.00000     0.23861    0.00140     0.24000
 =======================================================================
   * Total *    3.00000     64.97422   136.40699    0.61878   202.00000

 Normal termination of Gaussian 16 at Sat Mar 11 06:50:56 2023.
