 Gaussian 16, Revision A.03,
 Gaussian 16:  ES64L-G16RevA.03 25-Dec-2016

 ----------------------------------------------------------------------
 # PBE1PBE/def2TZVP empiricaldispersion=GD3BJ scf=maxcycle=999 geom=che
 ck guess=read pop=nbo
 ----------------------------------------------------------------------

 ----------
 1drm_III_D
 ----------
 Structure from the checkpoint file:  "1drm_III_D.chk"
 Charge =  1 Multiplicity = 2

                         Standard orientation:
 ---------------------------------------------------------------------
 Center     Atomic      Atomic             Coordinates (Angstroms)
 Number     Number       Type             X           Y           Z
 ---------------------------------------------------------------------
      1          6           0       -1.131239   -1.830485    5.439987
      2          6           0       -1.273583   -1.064428    4.143753
      3          7           0       -1.820839    0.199580    4.043630
      4          6           0       -0.879682   -1.385500    2.882889
      5          6           0       -1.739390    0.610183    2.760300
      6          7           0       -1.178207   -0.307977    1.990809
      7         26           0       -0.933636   -0.056462   -0.107600
      8          6           0        2.491177    0.681681    0.071878
      9          6           0       -0.361600   -3.437758   -0.512035
     10          6           0       -4.128773   -0.659191   -1.119583
     11          6           0       -1.592933    3.387985    0.096321
     12          7           0        0.675452   -1.196588   -0.177292
     13          6           0        2.070118   -0.674044   -0.092725
     14          6           0        2.925176   -1.797215   -0.260569
     15          6           0        2.106334   -2.920942   -0.409620
     16          6           0        0.762633   -2.537964   -0.356589
     17          6           0        2.532451   -4.422787   -0.663620
     18          6           0        4.447444   -1.616867   -0.498741
     19          6           0        5.162547   -2.596475    0.138973
     20          6           0        6.533866   -2.640906   -0.387884
     21          8           0        7.399573   -2.534376    0.550848
     22          8           0        6.748551   -2.807573   -1.646386
     23          7           0       -2.031406   -1.608491   -0.592476
     24          6           0       -1.583912   -3.032035   -0.678672
     25          6           0       -2.654949   -3.918092   -0.865341
     26          6           0       -3.740850   -3.206399   -1.063934
     27          6           0       -3.395806   -1.732125   -0.900453
     28          6           0       -2.582868   -5.446412   -0.887283
     29          6           0       -5.065573   -3.903276   -1.330823
     30          6           0       -6.280066   -3.089301   -1.814611
     31          7           0       -2.460926    1.035707   -0.426196
     32          6           0       -3.698136    0.638070   -0.879217
     33          6           0       -4.547130    1.813154   -1.082251
     34          6           0       -3.848928    2.860019   -0.791307
     35          6           0       -2.587351    2.437439   -0.381308
     36          6           0       -6.064878    1.754859   -1.607828
     37          6           0       -4.069877    4.422235   -0.990125
     38          6           0       -5.294211    5.112928   -0.361198
     39          7           0        0.021874    1.597653    0.078434
     40          6           0       -0.375527    3.018401    0.198626
     41          6           0        0.790581    3.923289    0.427248
     42          6           0        1.873808    3.181125    0.507274
     43          6           0        1.496624    1.795753    0.236006
     44          6           0        0.759487    5.375560    0.605862
     45          6           0        3.418827    3.486200    0.840954
     46          6           0        4.250171    3.731435   -0.470891
     47          6           0        5.540488    3.506291   -1.158741
     48          8           0        5.386745    3.776098   -2.345632
     49          8           0        6.159471    2.520293   -0.778444
     50          1           0        4.693090    3.344747   -2.849992
     51          1           0        3.576989    3.327486   -1.197906
     52          1           0        4.185541    4.797404   -0.537469
     53          1           0        3.834238    2.652684    1.367818
     54          1           0        3.477776    4.356629    1.460453
     55          1           0        3.536926    0.908103    0.078365
     56          1           0        4.646753   -1.663530   -1.548978
     57          1           0        4.750691   -0.661011   -0.125536
     58          1           0        4.689738   -3.542761   -0.021941
     59          1           0        5.192043   -2.388346    1.188121
     60          1           0        7.413546   -3.174813    1.265862
     61          1           0        1.936087   -4.834469   -1.450874
     62          1           0        3.564893   -4.458330   -0.942369
     63          1           0        2.384645   -4.991571    0.230549
     64          1           0       -0.175424   -4.491170   -0.488353
     65          1           0       -3.184335   -5.820364   -1.689341
     66          1           0       -1.567816   -5.753598   -1.029434
     67          1           0       -2.946049   -5.833976    0.041584
     68          1           0       -6.500534    0.816037   -1.336321
     69          1           0       -6.626665    2.550284   -1.164438
     70          1           0       -6.077864    1.859448   -2.672625
     71          1           0       -5.116793   -0.796598   -1.506670
     72          1           0       -1.879567    4.384970    0.358544
     73          1           0       -0.236362    5.684049    0.846733
     74          1           0        1.420434    5.651373    1.400832
     75          1           0        1.071657    5.853015   -0.299392
     76          1           0       -1.437730   -2.844680    5.290412
     77          1           0       -0.109242   -1.809678    5.756198
     78          1           0       -1.746037   -1.379076    6.190421
     79          1           0       -0.415438   -2.307076    2.599911
     80          1           0       -2.085548    1.559827    2.409229
     81          1           0       -2.213363    0.724909    4.798584
     82          1           0       -5.153998   -4.959251   -1.182506
     83          1           0       -7.148078   -3.592896   -2.185888
     84          1           0       -6.255890   -2.020151   -1.779473
     85          1           0       -3.367869    4.993481   -1.560882
     86          1           0       -6.276737    4.730734   -0.544147
     87          1           0       -5.162359    5.975019    0.258732
 ---------------------------------------------------------------------

 SCF Done:  E(UPBE1PBE) =  -3361.76266114     A.U. after    1 cycles

 Alpha virt. eigenvalues --    0.51119   0.51504   0.51878   0.52054   0.52238
 Alpha virt. eigenvalues --    0.52430   0.52661   0.52727   0.53167   0.53272
 Alpha virt. eigenvalues --    0.53882   0.54250   0.54413   0.54544   0.54830

  Beta  occ. eigenvalues -- -256.46894 -30.22386 -26.05732 -26.05259 -26.04575
  Beta  occ. eigenvalues --  -19.32241 -19.31870 -19.25963 -19.25796 -14.55375
  Beta  occ. eigenvalues --  -14.51900 -14.51519 -14.51006 -14.50810 -14.50011
  Beta  occ. eigenvalues --  -10.42781 -10.42619 -10.39513 -10.38817 -10.37579
  Beta  occ. eigenvalues --  -10.37375 -10.37197 -10.37087 -10.36870 -10.36737
  Beta  occ. eigenvalues --  -10.36503 -10.36302 -10.36198 -10.35796 -10.35430
  Beta  occ. eigenvalues --  -10.34662 -10.34178 -10.33951 -10.33886 -10.33780
  Beta  occ. eigenvalues --  -10.33654 -10.33487 -10.33414 -10.33398 -10.33318
  Beta  occ. eigenvalues --  -10.33317 -10.33129 -10.33111 -10.33107 -10.32633
  Beta  occ. eigenvalues --  -10.32372 -10.31215 -10.31118 -10.31037 -10.30921
  Beta  occ. eigenvalues --  -10.30868 -10.30052 -10.28868  -3.54739  -2.31128
  Beta  occ. eigenvalues --   -2.30445  -2.27973  -1.25445  -1.21840  -1.16094
  Beta  occ. eigenvalues --   -1.11526  -1.09863  -1.08546  -1.07572  -1.06452
  Beta  occ. eigenvalues --   -1.05213  -1.01466  -0.96099  -0.94830  -0.94095
  Beta  occ. eigenvalues --   -0.93321  -0.92829  -0.92392  -0.91181  -0.91138
  Beta  occ. eigenvalues --   -0.89161  -0.88702  -0.87713  -0.85682  -0.84452
  Beta  occ. eigenvalues --   -0.83672  -0.82672  -0.82373  -0.82047  -0.81382
  Beta  occ. eigenvalues --   -0.79844  -0.79056  -0.77933  -0.77046  -0.75890
  Beta  occ. eigenvalues --   -0.75050  -0.74899  -0.73199  -0.72515  -0.72458
  Beta  occ. eigenvalues --   -0.71857  -0.70689  -0.68455  -0.67127  -0.66797
  Beta  occ. eigenvalues --   -0.66147  -0.65260  -0.64416  -0.63551  -0.63281
  Beta  occ. eigenvalues --   -0.61767  -0.61289  -0.60881  -0.60174  -0.60084
  Beta  occ. eigenvalues --   -0.59729  -0.58811  -0.58539  -0.57992  -0.57782
  Beta  occ. eigenvalues --   -0.57445  -0.56774  -0.56126  -0.55856  -0.55647
  Beta  occ. eigenvalues --   -0.55409  -0.55099  -0.54825  -0.54344  -0.54152
  Beta  occ. eigenvalues --   -0.53928  -0.53865  -0.53548  -0.53374  -0.53184
  Beta  occ. eigenvalues --   -0.52918  -0.52743  -0.52431  -0.52067  -0.51938
  Beta  occ. eigenvalues --   -0.51742  -0.51607  -0.51316  -0.51294  -0.50835
  Beta  occ. eigenvalues --   -0.50592  -0.50114  -0.50002  -0.49480  -0.49392
  Beta  occ. eigenvalues --   -0.49213  -0.48794  -0.48607  -0.48434  -0.47525
  Beta  occ. eigenvalues --   -0.46891  -0.46571  -0.46287  -0.46113  -0.45730
  Beta  occ. eigenvalues --   -0.45501  -0.45279  -0.44804  -0.44484  -0.44257
  Beta  occ. eigenvalues --   -0.44019  -0.43326  -0.42959  -0.41968  -0.40988
  Beta  occ. eigenvalues --   -0.40588  -0.40374  -0.40289  -0.39164  -0.39087
  Beta  occ. eigenvalues --   -0.38205  -0.37249  -0.35621  -0.35077  -0.34487
  Beta  occ. eigenvalues --   -0.34417  -0.34043  -0.33351  -0.32457  -0.31142
  Beta  occ. eigenvalues --   -0.30564  -0.29595
  Beta virt. eigenvalues --   -0.20300  -0.18930  -0.16055  -0.14237  -0.13272
  Beta virt. eigenvalues --   -0.12662  -0.12231  -0.10358  -0.08804  -0.08624
  Beta virt. eigenvalues --   -0.07762  -0.06802  -0.06194  -0.06102  -0.05114

 Mulliken charges and spin densities:
               1          2
     1  C   -0.350019   0.000144
     2  C    0.134499   0.000007
     3  N   -0.210347  -0.001313
     4  C   -0.203863   0.002179
     5  C    0.027721   0.001398
     6  N   -0.030209  -0.038268
     7  Fe  -0.154025   1.824587
     8  C   -0.507084  -0.071722
     9  C   -0.506741  -0.108279
    10  C   -0.371391  -0.095290
    11  C   -0.532117  -0.023474
    12  N   -0.018733  -0.132934
    13  C    0.282202   0.015003
    14  C   -0.085660   0.030897
    15  C   -0.014037   0.000499
    16  C    0.194399   0.013900
    17  C   -0.386466  -0.001422
    18  C   -0.255643  -0.002947
    19  C   -0.203842   0.000743
    20  C    0.371519   0.000041
    21  O   -0.348366   0.000040
    22  O   -0.360469   0.000141
    23  N   -0.019694  -0.166692
    24  C    0.319308   0.047644
    25  C   -0.064463  -0.021937
    26  C    0.020497   0.030902
    27  C    0.259018  -0.024232
    28  C   -0.402586   0.001534
    29  C   -0.211234  -0.054304
    30  C   -0.266976   0.065188
    31  N   -0.031497  -0.059730
    32  C    0.283388   0.002020
    33  C   -0.078423  -0.034575
    34  C    0.014482   0.034801
    35  C    0.275529  -0.101747
    36  C   -0.362164   0.002036
    37  C   -0.273097   0.022291
    38  C   -0.284540  -0.020248
    39  N   -0.007675  -0.098296
    40  C    0.348308  -0.026899
    41  C   -0.033013   0.008491
    42  C   -0.087330  -0.013040
    43  C    0.220023  -0.017571
    44  C   -0.406661  -0.000215
    45  C   -0.118451   0.001625
    46  C   -0.388083  -0.001308
    47  C    0.308051  -0.000053
    48  O   -0.309499  -0.000022
    49  O   -0.291337  -0.000258
    50  H    0.362571  -0.000035
    51  H    0.110818  -0.000009
    52  H    0.142997  -0.000382
    53  H    0.147393  -0.000328
    54  H    0.144153   0.000025
    55  H    0.199187   0.003277
    56  H    0.151447   0.001225
    57  H    0.116269   0.000119
    58  H    0.101456  -0.000077
    59  H    0.107238   0.000051
    60  H    0.357526  -0.000002
    61  H    0.152238  -0.000066
    62  H    0.156668   0.000170
    63  H    0.147872  -0.000190
    64  H    0.148448   0.004919
    65  H    0.157545  -0.000691
    66  H    0.131471  -0.000277
    67  H    0.165700  -0.000558
    68  H    0.129253  -0.000436
    69  H    0.135645  -0.000355
    70  H    0.164235  -0.001512
    71  H    0.084870   0.004518
    72  H    0.171711   0.001945
    73  H    0.129082  -0.000054
    74  H    0.148757   0.000281
    75  H    0.162620   0.000114
    76  H    0.157525   0.000023
    77  H    0.159572   0.000023
    78  H    0.135765  -0.000053
    79  H    0.147831   0.000388
    80  H    0.175186   0.000693
    81  H    0.248124   0.000378
    82  H    0.166789   0.002285
    83  H    0.159327  -0.002723
    84  H    0.128886  -0.003096
    85  H    0.184715  -0.001232
    86  H    0.160543   0.001167
    87  H    0.165362   0.001141
 Sum of Mulliken charges =   1.00000   1.00000

 Dipole moment (field-independent basis, Debye):
    X=             -9.7697    Y=              0.6100    Z=              8.2401  Tot=             12.7952
 Quadrupole moment (field-independent basis, Debye-Ang):
   XX=           -256.9297   YY=           -195.4473   ZZ=           -245.2705
   XY=             -6.4814   XZ=             21.9434   YZ=             -9.4104

 Summary of Natural Population Analysis:

                                       Natural Population
                Natural  -----------------------------------------------
    Atom  No    Charge         Core      Valence    Rydberg      Total
 -----------------------------------------------------------------------
      C    1   -0.32014      0.99969     2.31726    0.00319     3.32014
      C    2    0.06044      0.99953     1.93108    0.00895     2.93956
      N    3   -0.24256      0.99970     2.73293    0.00993     3.74256
      C    4   -0.04263      0.99944     2.03434    0.00885     3.04263
      C    5    0.10292      0.99970     1.88821    0.00918     2.89708
      N    6   -0.20447      0.99972     2.68527    0.01948     3.70447
     Fe    7    1.13624      8.99299     2.85756    0.01321    11.86376
      C    8   -0.12689      0.99954     2.12048    0.00687     3.12689
      C    9   -0.14558      0.99936     2.13783    0.00838     3.14558
      C   10   -0.14617      0.99938     2.13775    0.00905     3.14617
      C   11   -0.11971      0.99927     2.11150    0.00895     3.11971
      N   12   -0.25556      0.99968     2.73796    0.01792     3.75556
      C   13    0.07966      0.99948     1.91165    0.00921     2.92034
      C   14    0.00901      0.99942     1.98211    0.00945     2.99099
      C   15   -0.00946      0.99940     2.00217    0.00789     3.00946
      C   16    0.09264      0.99950     1.89764    0.01022     2.90736
      C   17   -0.31810      0.99968     2.31495    0.00347     3.31810
      C   18   -0.20917      0.99955     2.20141    0.00822     3.20917
      C   19   -0.26284      0.99952     2.25292    0.01040     3.26284
      C   20    0.39132      0.99967     1.59296    0.01604     2.60868
      O   21   -0.33616      0.99981     3.32206    0.01428     4.33616
      O   22   -0.27864      0.99991     3.26822    0.01052     4.27864
      N   23   -0.25817      0.99972     2.73816    0.02029     3.75817
      C   24    0.08998      0.99927     1.90089    0.00985     2.91002
      C   25   -0.01527      0.99928     2.00695    0.00903     3.01527
      C   26   -0.01853      0.99928     2.00924    0.01000     3.01853
      C   27    0.08657      0.99945     1.90393    0.01004     2.91343
      C   28   -0.31657      0.99970     2.31077    0.00609     3.31657
      C   29   -0.12239      0.99971     2.11648    0.00620     3.12239
      C   30   -0.13884      0.99975     2.13441    0.00468     3.13884
      N   31   -0.22529      0.99966     2.70796    0.01768     3.72529
      C   32    0.08870      0.99955     1.90174    0.01001     2.91130
      C   33   -0.00761      0.99920     1.99957    0.00883     3.00761
      C   34   -0.04532      0.99910     2.03470    0.01152     3.04532
      C   35    0.06116      0.99949     1.92923    0.01012     2.93884
      C   36   -0.31147      0.99968     2.30836    0.00343     3.31147
      C   37   -0.08886      0.99974     2.08230    0.00683     3.08886
      C   38   -0.17844      0.99975     2.17315    0.00554     3.17844
      N   39   -0.23984      0.99972     2.72117    0.01894     3.73984
      C   40    0.06079      0.99929     1.92916    0.01076     2.93921
      C   41   -0.00196      0.99935     1.99386    0.00874     3.00196
      C   42   -0.02320      0.99925     2.01454    0.00941     3.02320
      C   43    0.08703      0.99958     1.90444    0.00895     2.91297
      C   44   -0.32028      0.99968     2.31383    0.00677     3.32028
      C   45   -0.20245      0.99963     2.19625    0.00657     3.20245
      C   46   -0.26061      0.99952     2.24990    0.01118     3.26061
      C   47    0.38363      0.99952     1.59775    0.01909     2.61637
      O   48   -0.33907      0.99976     3.32347    0.01584     4.33907
      O   49   -0.26214      0.99988     3.24989    0.01237     4.26214
      H   50    0.26157      0.00000     0.23738    0.00105     0.23843
      H   51    0.10294      0.00000     0.39588    0.00118     0.39706
      H   52    0.10929      0.00000     0.38997    0.00074     0.39071
      H   53    0.11278      0.00000     0.38616    0.00105     0.38722
      H   54    0.11300      0.00000     0.38631    0.00069     0.38700
      H   55    0.12182      0.00000     0.37698    0.00120     0.37818
      H   56    0.12947      0.00000     0.36970    0.00083     0.37053
      H   57    0.10794      0.00000     0.39117    0.00088     0.39206
      H   58    0.11725      0.00000     0.38197    0.00078     0.38275
      H   59    0.10512      0.00000     0.39422    0.00066     0.39488
      H   60    0.25748      0.00000     0.24153    0.00099     0.24252
      H   61    0.11398      0.00000     0.38535    0.00067     0.38602
      H   62    0.11268      0.00000     0.38663    0.00069     0.38732
      H   63    0.11230      0.00000     0.38701    0.00069     0.38770
      H   64    0.11698      0.00000     0.38163    0.00140     0.38302
      H   65    0.11822      0.00000     0.38115    0.00063     0.38178
      H   66    0.11001      0.00000     0.38953    0.00047     0.38999
      H   67    0.11702      0.00000     0.38235    0.00063     0.38298
      H   68    0.10797      0.00000     0.39145    0.00058     0.39203
      H   69    0.11288      0.00000     0.38633    0.00080     0.38712
      H   70    0.11581      0.00000     0.38352    0.00067     0.38419
      H   71    0.11410      0.00000     0.38441    0.00149     0.38590
      H   72    0.12295      0.00000     0.37567    0.00139     0.37705
      H   73    0.11042      0.00000     0.38913    0.00045     0.38958
      H   74    0.11826      0.00000     0.38108    0.00066     0.38174
      H   75    0.11977      0.00000     0.37954    0.00069     0.38023
      H   76    0.12053      0.00000     0.37896    0.00051     0.37947
      H   77    0.11913      0.00000     0.38029    0.00058     0.38087
      H   78    0.11296      0.00000     0.38647    0.00058     0.38704
      H   79    0.11368      0.00000     0.38566    0.00065     0.38632
      H   80    0.11058      0.00000     0.38853    0.00089     0.38942
      H   81    0.21324      0.00000     0.28595    0.00081     0.28676
      H   82    0.11151      0.00000     0.38766    0.00083     0.38849
      H   83    0.10409      0.00000     0.39529    0.00063     0.39591
      H   84    0.08548      0.00000     0.41377    0.00075     0.41452
      H   85    0.10914      0.00000     0.38996    0.00091     0.39086
      H   86    0.09918      0.00000     0.39979    0.00103     0.40082
      H   87    0.10278      0.00000     0.39643    0.00079     0.39722
 =======================================================================
   * Total *    1.00000     56.97147   124.49518    0.53334   182.00000

 Normal termination of Gaussian 16 at Thu Nov  3 15:29:56 2022.
