 Gaussian 16, Revision A.03,
 Gaussian 16:  ES64L-G16RevA.03 25-Dec-2016

 ----------------------------------------------------------------------
 # PBE1PBE/def2TZVP empiricaldispersion=GD3BJ scf=maxcycle=999 geom=che
 ck guess=read pop=nbo
 ----------------------------------------------------------------------

 ----------
 1drm_III_D
 ----------
 Structure from the checkpoint file:  "1drm_III_D.chk"
 Charge =  1 Multiplicity = 2

                         Standard orientation:
 ---------------------------------------------------------------------
 Center     Atomic      Atomic             Coordinates (Angstroms)
 Number     Number       Type             X           Y           Z
 ---------------------------------------------------------------------
      1          6           0       -1.125983   -1.908213    5.402037
      2          6           0       -1.269752   -1.122076    4.118040
      3          7           0       -1.819874    0.142104    4.037763
      4          6           0       -0.874797   -1.422264    2.852370
      5          6           0       -1.739039    0.573139    2.761111
      6          7           0       -1.175562   -0.331450    1.977358
      7         26           0       -0.931035   -0.046217   -0.116740
      8          6           0        2.492034    0.696816    0.075383
      9          6           0       -0.351158   -3.419378   -0.574439
     10          6           0       -4.124527   -0.640162   -1.139055
     11          6           0       -1.598265    3.393057    0.141444
     12          7           0        0.680677   -1.181420   -0.203990
     13          6           0        2.074120   -0.657094   -0.110764
     14          6           0        2.931790   -1.775513   -0.296105
     15          6           0        2.115560   -2.898610   -0.463148
     16          6           0        0.770973   -2.519589   -0.404455
     17          6           0        2.545178   -4.395272   -0.740746
     18          6           0        4.453702   -1.587943   -0.530953
     19          6           0        5.170883   -2.575879    0.091395
     20          6           0        6.542434   -2.608838   -0.435701
     21          8           0        7.407657   -2.515192    0.504849
     22          8           0        6.757819   -2.755088   -1.696621
     23          7           0       -2.025127   -1.592888   -0.626421
     24          6           0       -1.574354   -3.013864   -0.734992
     25          6           0       -2.643312   -3.899302   -0.935963
     26          6           0       -3.730789   -3.187039   -1.123588
     27          6           0       -3.389162   -1.714752   -0.936710
     28          6           0       -2.567728   -5.426915   -0.982053
     29          6           0       -5.053846   -3.882633   -1.401851
     30          6           0       -6.280339   -2.964675   -1.125465
     31          7           0       -2.460740    1.047362   -0.418464
     32          6           0       -3.696922    0.654115   -0.878076
     33          6           0       -4.548552    1.830321   -1.062745
     34          6           0       -3.852821    2.874045   -0.755077
     35          6           0       -2.590385    2.447916   -0.351448
     36          6           0       -6.066029    1.776879   -1.589619
     37          6           0       -4.077295    4.438701   -0.929225
     38          6           0       -5.528216    4.744877   -0.920005
     39          7           0        0.020639    1.606926    0.095710
     40          6           0       -0.380043    3.024684    0.238244
     41          6           0        0.783932    3.928505    0.481487
     42          6           0        1.868835    3.187644    0.550078
     43          6           0        1.494892    1.805878    0.256823
     44          6           0        0.749469    5.377693    0.683040
     45          6           0        3.413067    3.490932    0.888990
     46          6           0        4.244181    3.758784   -0.418572
     47          6           0        5.535184    3.547497   -1.109523
     48          8           0        5.381125    3.835691   -2.292042
     49          8           0        6.156326    2.557024   -0.744689
     50          1           0       -1.430114   -2.920612    5.236351
     51          1           0       -0.104117   -1.890075    5.718834
     52          1           0       -1.742004   -1.470135    6.159339
     53          1           0       -2.213791    0.654527    4.800818
     54          1           0       -2.087282    1.527424    2.425005
     55          1           0       -0.408373   -2.338185    2.554986
     56          1           0        7.422914   -3.166825    1.209648
     57          1           0        4.700282   -3.520579   -0.084604
     58          1           0        5.199637   -2.384304    1.143712
     59          1           0        4.653383   -1.617533   -1.581739
     60          1           0        4.754665   -0.637420   -0.142588
     61          1           0        5.782693    1.682033   -0.872711
     62          1           0        3.572109    3.364849   -1.152080
     63          1           0        4.177127    4.825523   -0.468300
     64          1           0        3.830252    2.650138    1.402724
     65          1           0        3.469866    4.351585    1.522195
     66          1           0       -0.247144    5.680058    0.928471
     67          1           0        1.409582    5.642407    1.482463
     68          1           0        1.060775    5.870120   -0.214460
     69          1           0        3.537261    0.925496    0.085754
     70          1           0        1.949958   -4.795811   -1.534585
     71          1           0        3.577769   -4.424042   -1.019723
     72          1           0        2.398448   -4.978464    0.144272
     73          1           0       -0.162578   -4.472605   -0.567367
     74          1           0       -1.887247    4.385113    0.419320
     75          1           0       -5.112131   -0.773686   -1.528554
     76          1           0       -6.499603    0.832886   -1.333120
     77          1           0       -6.629747    2.563905   -1.133865
     78          1           0       -6.078984    1.898267   -2.652632
     79          1           0       -6.225778    4.042641   -1.326420
     80          1           0       -5.877578    5.668035   -0.506938
     81          1           0       -3.297184    5.163063   -1.037052
     82          1           0       -3.168134   -5.789507   -1.790100
     83          1           0       -1.551940   -5.729494   -1.128751
     84          1           0       -2.930257   -5.829951   -0.059538
     85          1           0       -7.264193   -3.292643   -1.388846
     86          1           0       -6.139517   -2.005750   -0.672110
     87          1           0       -5.133137   -4.891559   -1.749241
 ---------------------------------------------------------------------

 SCF Done:  E(UPBE1PBE) =  -3361.76121169     A.U. after   73 cycles

 Alpha virt. eigenvalues --    0.51257   0.51361   0.51685   0.51926   0.52481
 Alpha virt. eigenvalues --    0.52591   0.52789   0.53029   0.53294   0.53600
 Alpha virt. eigenvalues --    0.53788   0.54059   0.54354   0.54557   0.54982

  Beta  occ. eigenvalues -- -256.44381 -30.21423 -26.04357 -26.03921 -26.03609
  Beta  occ. eigenvalues --  -19.33389 -19.31856 -19.26967 -19.25919 -14.54939
  Beta  occ. eigenvalues --  -14.51195 -14.51043 -14.50310 -14.50218 -14.49619
  Beta  occ. eigenvalues --  -10.43745 -10.42938 -10.39673 -10.38937 -10.38007
  Beta  occ. eigenvalues --  -10.37643 -10.37360 -10.36995 -10.36952 -10.36929
  Beta  occ. eigenvalues --  -10.36688 -10.36437 -10.36064 -10.35864 -10.35594
  Beta  occ. eigenvalues --  -10.34464 -10.34196 -10.34112 -10.34048 -10.34013
  Beta  occ. eigenvalues --  -10.33735 -10.33707 -10.33549 -10.33427 -10.33425
  Beta  occ. eigenvalues --  -10.33071 -10.32963 -10.32935 -10.32495 -10.32426
  Beta  occ. eigenvalues --  -10.32174 -10.31500 -10.31434 -10.31396 -10.31189
  Beta  occ. eigenvalues --  -10.31169 -10.30197 -10.29991  -3.56237  -2.32510
  Beta  occ. eigenvalues --   -2.31674  -2.31082  -1.25265  -1.22999  -1.15615
  Beta  occ. eigenvalues --   -1.11810  -1.09708  -1.09481  -1.07403  -1.06185
  Beta  occ. eigenvalues --   -1.05105  -1.00889  -0.96169  -0.95533  -0.94095
  Beta  occ. eigenvalues --   -0.93349  -0.92954  -0.92395  -0.91050  -0.90794
  Beta  occ. eigenvalues --   -0.89227  -0.88754  -0.87800  -0.85682  -0.84749
  Beta  occ. eigenvalues --   -0.83859  -0.82789  -0.82662  -0.82320  -0.81203
  Beta  occ. eigenvalues --   -0.79774  -0.78700  -0.78264  -0.77673  -0.76061
  Beta  occ. eigenvalues --   -0.75093  -0.74545  -0.74005  -0.72794  -0.72052
  Beta  occ. eigenvalues --   -0.71262  -0.70638  -0.68334  -0.67182  -0.66697
  Beta  occ. eigenvalues --   -0.66104  -0.65637  -0.64723  -0.63749  -0.63423
  Beta  occ. eigenvalues --   -0.62326  -0.61872  -0.60890  -0.60517  -0.60184
  Beta  occ. eigenvalues --   -0.59550  -0.59100  -0.58469  -0.58078  -0.57473
  Beta  occ. eigenvalues --   -0.57402  -0.57248  -0.56525  -0.56049  -0.55529
  Beta  occ. eigenvalues --   -0.55433  -0.55149  -0.54910  -0.54847  -0.54421
  Beta  occ. eigenvalues --   -0.54080  -0.53786  -0.53668  -0.53418  -0.52968
  Beta  occ. eigenvalues --   -0.52782  -0.52632  -0.52465  -0.52270  -0.52150
  Beta  occ. eigenvalues --   -0.51937  -0.51760  -0.51578  -0.50967  -0.50835
  Beta  occ. eigenvalues --   -0.50620  -0.50209  -0.49855  -0.49641  -0.49355
  Beta  occ. eigenvalues --   -0.48981  -0.48672  -0.48429  -0.48047  -0.47607
  Beta  occ. eigenvalues --   -0.47322  -0.46911  -0.46435  -0.45965  -0.45686
  Beta  occ. eigenvalues --   -0.45602  -0.45239  -0.44773  -0.44520  -0.43966
  Beta  occ. eigenvalues --   -0.43740  -0.42645  -0.42062  -0.41790  -0.40590
  Beta  occ. eigenvalues --   -0.40289  -0.40249  -0.39945  -0.39719  -0.38995
  Beta  occ. eigenvalues --   -0.38045  -0.37543  -0.36498  -0.35558  -0.35307
  Beta  occ. eigenvalues --   -0.34751  -0.34154  -0.33130  -0.32508  -0.31802
  Beta  occ. eigenvalues --   -0.30752  -0.30511
  Beta virt. eigenvalues --   -0.24948  -0.19048  -0.17023  -0.14201  -0.14089
  Beta virt. eigenvalues --   -0.13197  -0.12915  -0.10253  -0.09951  -0.08258
  Beta virt. eigenvalues --   -0.07145  -0.06467  -0.06380  -0.05970  -0.05717

 Mulliken charges and spin densities:
               1          2
     1  C   -0.350852   0.000080
     2  C    0.135888  -0.000343
     3  N   -0.212852  -0.000038
     4  C   -0.209128   0.001677
     5  C    0.021061   0.001769
     6  N   -0.018232  -0.002093
     7  Fe  -0.164563  -0.036746
     8  C   -0.454654  -0.097378
     9  C   -0.528282  -0.051027
    10  C   -0.486203  -0.016508
    11  C   -0.507896  -0.071403
    12  N   -0.007827  -0.011682
    13  C    0.311893   0.182313
    14  C   -0.091258  -0.034085
    15  C   -0.008813   0.081175
    16  C    0.206208   0.136576
    17  C   -0.383846  -0.004648
    18  C   -0.247151  -0.001056
    19  C   -0.206512  -0.000127
    20  C    0.363820  -0.000065
    21  O   -0.348541   0.000046
    22  O   -0.353723   0.000166
    23  N   -0.035497   0.004137
    24  C    0.338695   0.077508
    25  C   -0.087983  -0.055324
    26  C    0.057170   0.055830
    27  C    0.246379   0.092972
    28  C   -0.387790   0.002543
    29  C   -0.178616  -0.117354
    30  C   -0.298295   0.166914
    31  N   -0.029284  -0.061641
    32  C    0.307431   0.083179
    33  C   -0.090221   0.123869
    34  C   -0.008159  -0.065707
    35  C    0.286053   0.264188
    36  C   -0.350342  -0.008349
    37  C   -0.205402   0.050869
    38  C   -0.259273  -0.054040
    39  N   -0.040817  -0.110097
    40  C    0.323775   0.114573
    41  C   -0.028200   0.102853
    42  C   -0.087893  -0.051350
    43  C    0.272046   0.284843
    44  C   -0.410535  -0.006049
    45  C   -0.104375   0.000812
    46  C   -0.448742   0.000750
    47  C    0.311100  -0.000273
    48  O   -0.272140   0.000359
    49  O   -0.326504  -0.000016
    50  H    0.156678   0.000000
    51  H    0.157040  -0.000004
    52  H    0.135081   0.000012
    53  H    0.246884  -0.000069
    54  H    0.172448  -0.000143
    55  H    0.143909   0.000041
    56  H    0.360513  -0.000004
    57  H    0.109279   0.000060
    58  H    0.109633   0.000091
    59  H    0.162005   0.000240
    60  H    0.068254  -0.000035
    61  H    0.349259  -0.000025
    62  H    0.188281  -0.000188
    63  H    0.144128   0.000491
    64  H    0.143214  -0.000225
    65  H    0.143765  -0.000457
    66  H    0.129778   0.001016
    67  H    0.149593   0.002896
    68  H    0.174117   0.007358
    69  H    0.070813   0.003885
    70  H    0.155509   0.002246
    71  H    0.154601   0.000031
    72  H    0.150490   0.004417
    73  H    0.148126   0.001728
    74  H    0.160306   0.002640
    75  H    0.149343   0.001067
    76  H    0.126570   0.001124
    77  H    0.128631   0.001621
    78  H    0.172891   0.005934
    79  H    0.147747   0.002547
    80  H    0.154892   0.002807
    81  H    0.171348  -0.002416
    82  H    0.146673  -0.001190
    83  H    0.128784  -0.000190
    84  H    0.167828  -0.001716
    85  H    0.159093  -0.006824
    86  H    0.153178  -0.006774
    87  H    0.158203   0.005406
 Sum of Mulliken charges =   1.00000   1.00000

 Dipole moment (field-independent basis, Debye):
    X=             -8.5681    Y=             -2.1383    Z=             10.6615  Tot=             13.8438
 Quadrupole moment (field-independent basis, Debye-Ang):
   XX=           -234.3989   YY=           -205.5376   ZZ=           -260.5920
   XY=            -17.9855   XZ=             37.2121   YZ=              6.5140

 Summary of Natural Population Analysis:

                                       Natural Population
                Natural  -----------------------------------------------
    Atom  No    Charge         Core      Valence    Rydberg      Total
 -----------------------------------------------------------------------
      C    1   -0.31996      0.99969     2.31708    0.00319     3.31996
      C    2    0.05882      0.99953     1.93266    0.00898     2.94118
      N    3   -0.24341      0.99970     2.73375    0.00997     3.74341
      C    4   -0.04460      0.99944     2.03631    0.00885     3.04460
      C    5    0.09983      0.99970     1.89126    0.00921     2.90017
      N    6   -0.17856      0.99969     2.65854    0.02033     3.67856
     Fe    7    0.20540      8.99262     3.78864    0.01334    12.79460
      C    8   -0.15609      0.99954     2.14974    0.00682     3.15609
      C    9   -0.13652      0.99936     2.12887    0.00828     3.13652
      C   10   -0.13415      0.99938     2.12590    0.00887     3.13415
      C   11   -0.15504      0.99927     2.14720    0.00857     3.15504
      N   12   -0.20290      0.99968     2.68330    0.01993     3.70290
      C   13    0.17725      0.99947     1.81432    0.00896     2.82275
      C   14   -0.02069      0.99942     2.01160    0.00967     3.02069
      C   15    0.03731      0.99940     1.95558    0.00770     2.96269
      C   16    0.15742      0.99950     1.83308    0.01000     2.84258
      C   17   -0.31989      0.99968     2.31680    0.00340     3.31989
      C   18   -0.20503      0.99955     2.19713    0.00836     3.20503
      C   19   -0.26412      0.99952     2.25400    0.01060     3.26412
      C   20    0.38889      0.99967     1.59524    0.01620     2.61111
      O   21   -0.33716      0.99981     3.32313    0.01422     4.33716
      O   22   -0.27685      0.99991     3.26636    0.01058     4.27685
      N   23   -0.18544      0.99972     2.66661    0.01912     3.68544
      C   24    0.12112      0.99927     1.87006    0.00955     2.87888
      C   25   -0.03153      0.99928     2.02334    0.00891     3.03153
      C   26   -0.00081      0.99928     1.99142    0.01011     3.00081
      C   27    0.14815      0.99944     1.84266    0.00975     2.85185
      C   28   -0.31380      0.99970     2.30804    0.00605     3.31380
      C   29   -0.14809      0.99971     2.14228    0.00610     3.14809
      C   30   -0.09405      0.99975     2.08973    0.00457     3.09405
      N   31   -0.23169      0.99966     2.71150    0.02053     3.73169
      C   32    0.13977      0.99955     1.85096    0.00971     2.86023
      C   33    0.07265      0.99920     1.91909    0.00906     2.92735
      C   34   -0.08346      0.99912     2.07320    0.01114     3.08346
      C   35    0.24225      0.99949     1.74858    0.00968     2.75775
      C   36   -0.31539      0.99967     2.31226    0.00346     3.31539
      C   37   -0.08328      0.99972     2.07735    0.00621     3.08328
      C   38   -0.18481      0.99974     2.17990    0.00517     3.18481
      N   39   -0.25820      0.99972     2.73989    0.01860     3.75820
      C   40    0.14282      0.99929     1.84767    0.01022     2.85718
      C   41    0.05954      0.99935     1.93267    0.00844     2.94046
      C   42   -0.04300      0.99925     2.03423    0.00952     3.04300
      C   43    0.25257      0.99958     1.73920    0.00866     2.74743
      C   44   -0.32439      0.99968     2.31802    0.00669     3.32439
      C   45   -0.20251      0.99963     2.19660    0.00628     3.20251
      C   46   -0.27870      0.99953     2.26865    0.01053     3.27870
      C   47    0.38719      0.99951     1.59431    0.01899     2.61281
      O   48   -0.25299      0.99988     3.24053    0.01257     4.25299
      O   49   -0.34653      0.99975     3.33093    0.01584     4.34653
      H   50    0.12008      0.00000     0.37941    0.00051     0.37992
      H   51    0.11824      0.00000     0.38117    0.00059     0.38176
      H   52    0.11265      0.00000     0.38677    0.00058     0.38735
      H   53    0.21256      0.00000     0.28663    0.00081     0.28744
      H   54    0.10963      0.00000     0.38949    0.00087     0.39037
      H   55    0.11243      0.00000     0.38692    0.00064     0.38757
      H   56    0.25851      0.00000     0.24051    0.00098     0.24149
      H   57    0.11978      0.00000     0.37945    0.00077     0.38022
      H   58    0.10559      0.00000     0.39374    0.00067     0.39441
      H   59    0.12942      0.00000     0.36974    0.00084     0.37058
      H   60    0.09633      0.00000     0.40259    0.00108     0.40367
      H   61    0.26053      0.00000     0.23832    0.00115     0.23947
      H   62    0.11968      0.00000     0.37929    0.00103     0.38032
      H   63    0.11876      0.00000     0.38058    0.00066     0.38124
      H   64    0.10597      0.00000     0.39272    0.00131     0.39403
      H   65    0.11242      0.00000     0.38686    0.00072     0.38758
      H   66    0.11106      0.00000     0.38850    0.00044     0.38894
      H   67    0.12077      0.00000     0.37860    0.00063     0.37923
      H   68    0.12701      0.00000     0.37239    0.00060     0.37299
      H   69    0.11084      0.00000     0.38741    0.00175     0.38916
      H   70    0.11636      0.00000     0.38298    0.00067     0.38364
      H   71    0.11208      0.00000     0.38724    0.00068     0.38792
      H   72    0.11543      0.00000     0.38391    0.00067     0.38457
      H   73    0.11539      0.00000     0.38322    0.00139     0.38461
      H   74    0.12013      0.00000     0.37843    0.00145     0.37987
      H   75    0.11915      0.00000     0.37963    0.00122     0.38085
      H   76    0.11025      0.00000     0.38916    0.00059     0.38975
      H   77    0.10992      0.00000     0.38927    0.00081     0.39008
      H   78    0.12079      0.00000     0.37856    0.00065     0.37921
      H   79    0.09558      0.00000     0.40356    0.00085     0.40442
      H   80    0.10329      0.00000     0.39600    0.00072     0.39671
      H   81    0.11248      0.00000     0.38671    0.00082     0.38752
      H   82    0.11506      0.00000     0.38429    0.00065     0.38494
      H   83    0.10950      0.00000     0.39004    0.00046     0.39050
      H   84    0.11745      0.00000     0.38191    0.00064     0.38255
      H   85    0.10045      0.00000     0.39891    0.00064     0.39955
      H   86    0.09134      0.00000     0.40780    0.00086     0.40866
      H   87    0.11578      0.00000     0.38335    0.00087     0.38422
 =======================================================================
   * Total *    1.00000     56.97100   124.49623    0.53278   182.00000

 Normal termination of Gaussian 16 at Fri Jan 20 19:57:13 2023.
