 Gaussian 16, Revision A.03,
 Gaussian 16:  AM64L-G16RevA.03 25-Dec-2016

 ----------------------------------------------------------------------
 # PBE1PBE/def2TZVP empiricaldispersion=GD3BJ scf=maxcycle=999 geom=che
 ck pop=nbo
 ----------------------------------------------------------------------

 ----------
 1giw_III_D
 ----------
 Structure from the checkpoint file:  "1giw_III_D.chk"
 Charge =  1 Multiplicity = 2

                         Standard orientation:
 ---------------------------------------------------------------------
 Center     Atomic      Atomic             Coordinates (Angstroms)
 Number     Number       Type             X           Y           Z
 ---------------------------------------------------------------------
      1          6           0        2.528443   -2.047617    4.741988
      2          6           0        1.672587   -1.350763    3.744258
      3          7           0        0.308024   -1.457780    3.688063
      4          6           0        2.117944   -0.854803    2.551700
      5          6           0       -0.062201   -1.019609    2.480801
      6          7           0        0.985248   -0.605338    1.762921
      7          1           0        3.513208   -2.171835    4.342353
      8          1           0        2.109575   -3.007094    4.963015
      9          1           0       -0.288915   -1.952203    4.344879
     10          1           0        3.163733   -0.861097    2.257362
     11          1           0       -1.047237   -1.123663    2.074236
     12          6           0       -0.487907    3.160856   -2.880346
     13          6           0        0.753236    2.274983   -2.793670
     14         16           0        0.351412    0.576924   -2.310745
     15          6           0        1.193991   -0.437063   -3.554004
     16          1           0       -1.284767    2.713833   -2.323493
     17          1           0       -0.781974    3.263625   -3.903998
     18          1           0        1.236634    2.280849   -3.770136
     19          1           0        1.469716    2.662646   -2.074132
     20          1           0        0.887097   -0.137959   -4.559645
     21          1           0        2.272097   -0.321462   -3.434133
     22          1           0        0.917699   -1.480788   -3.411374
     23         26           0        0.851200   -0.134091   -0.114737
     24          6           0       -2.685808   -0.193822   -0.090357
     25          6           0        0.958186   -3.449554   -0.840383
     26          6           0        4.256478    0.166276   -0.228549
     27          6           0        0.660946    3.248850    0.835466
     28          7           0       -0.616053   -1.562596   -0.463388
     29          6           0       -1.979180   -1.373847   -0.370409
     30          6           0       -2.598153   -2.667103   -0.560241
     31          6           0       -1.590422   -3.574909   -0.829104
     32          6           0       -0.324064   -2.874112   -0.712721
     33          6           0       -1.806219   -5.022677   -1.224541
     34          6           0       -4.083954   -2.978856   -0.485540
     35          6           0       -4.799711   -2.544452    0.803383
     36          6           0       -5.941381   -3.475852    1.193845
     37          8           0       -7.071233   -3.229773    0.714004
     38          8           0       -5.666235   -4.430335    1.949723
     39          7           0        2.338634   -1.399639   -0.481269
     40          6           0        2.165519   -2.722756   -0.741667
     41          6           0        3.488225   -3.295029   -0.855939
     42          6           0        4.410569   -2.267734   -0.770219
     43          6           0        3.666939   -1.072159   -0.476675
     44          6           0        3.778655   -4.768237   -0.913968
     45          6           0        5.909248   -2.311193   -1.035668
     46          6           0        6.232967   -2.760997   -2.460139
     47          7           0        2.206747    1.423832    0.224648
     48          6           0        3.543850    1.284112    0.133641
     49          6           0        4.158485    2.526835    0.517627
     50          6           0        3.149390    3.354172    0.951780
     51          6           0        1.907393    2.683927    0.643660
     52          6           0        5.642271    2.789578    0.549710
     53          6           0        3.289610    4.558670    1.862947
     54          6           0        3.743899    5.839569    1.162601
     55          7           0       -0.737386    1.287959    0.283469
     56          6           0       -0.539155    2.583475    0.644273
     57          6           0       -1.827735    3.204281    0.821694
     58          6           0       -2.781397    2.247343    0.568310
     59          6           0       -2.077091    1.025002    0.219928
     60          6           0       -2.075101    4.628643    1.259981
     61          6           0       -4.279099    2.453789    0.681172
     62          6           0       -5.043527    2.171806   -0.616278
     63          6           0       -5.556165    3.401845   -1.367487
     64          8           0       -6.004668    4.394448   -0.747297
     65          8           0       -5.534963    3.299995   -2.609088
     66          1           0       -3.759515   -0.226535   -0.087202
     67          1           0        1.032060   -4.505789   -1.034615
     68          1           0        5.324717    0.274349   -0.237356
     69          1           0        0.620761    4.286706    1.109261
     70          1           0       -2.273543   -5.060240   -2.210059
     71          1           0       -0.880697   -5.595160   -1.262635
     72          1           0       -2.471265   -5.500094   -0.507947
     73          1           0       -4.575232   -2.492297   -1.323351
     74          1           0       -4.217837   -4.054553   -0.585099
     75          1           0       -4.072388   -2.546773    1.608614
     76          1           0       -5.240553   -1.553873    0.696421
     77          1           0        3.350121   -5.219196   -1.808147
     78          1           0        4.848405   -4.933969   -0.901059
     79          1           0        3.343754   -5.227528   -0.029196
     80          1           0        6.350859   -1.325813   -0.963823
     81          1           0        5.783597   -2.059247   -3.163035
     82          1           0        7.312270   -2.781775   -2.603166
     83          1           0        5.823343   -3.745913   -2.650847
     84          1           0        6.055306    2.603094   -0.441598
     85          1           0        5.856244    3.814934    0.836161
     86          1           0        6.110038    2.119024    1.269996
     87          1           0        2.322886    4.787984    2.293245
     88          1           0        2.974367    6.132744    0.449281
     89          1           0        3.862354    6.631084    1.901739
     90          1           0        4.686720    5.688731    0.641138
     91          1           0       -1.312254    5.295469    0.861168
     92          1           0       -3.034935    4.979380    0.901953
     93          1           0       -2.065661    4.675749    2.346604
     94          1           0       -4.663977    1.805481    1.467616
     95          1           0       -4.510661    3.464395    1.003036
     96          1           0       -4.385629    1.633045   -1.297540
     97          1           0       -5.893429    1.527729   -0.393954
     98          1           0       -0.266490    4.125727   -2.474270
     99          1           0        2.578062   -1.465087    5.638144
    100          1           0       -7.755124   -2.846864    1.268327
    101          1           0       -6.100415    4.360849    0.207325
 ---------------------------------------------------------------------

 SCF Done:  E(UPBE1PBE) =  -3880.37749858     A.U. after   81 cycles

 Alpha virt. eigenvalues --    0.94789   0.94905   0.95292   0.95632   0.96137
 Alpha virt. eigenvalues --    0.96507   0.96663   0.97031   0.97240   0.97489
 Alpha virt. eigenvalues --    0.97673   0.97909   0.97982   0.98326   0.98577

  Beta  occ. eigenvalues -- -256.51191 -89.14309 -30.27466 -26.10522 -26.10251
  Beta  occ. eigenvalues --  -26.09701 -19.34905 -19.33148 -19.25998 -19.24387
  Beta  occ. eigenvalues --  -14.56520 -14.52707 -14.49692 -14.49265 -14.48848
  Beta  occ. eigenvalues --  -14.48844 -10.43105 -10.42548 -10.40412 -10.37107
  Beta  occ. eigenvalues --  -10.36316 -10.36196 -10.36166 -10.36148 -10.36085
  Beta  occ. eigenvalues --  -10.35580 -10.35515 -10.35362 -10.35180 -10.34541
  Beta  occ. eigenvalues --  -10.34351 -10.33767 -10.33590 -10.33446 -10.32915
  Beta  occ. eigenvalues --  -10.32902 -10.32847 -10.32796 -10.32768 -10.32711
  Beta  occ. eigenvalues --  -10.32611 -10.32495 -10.32473 -10.32222 -10.32151
  Beta  occ. eigenvalues --  -10.32101 -10.31962 -10.31915 -10.31694 -10.31676
  Beta  occ. eigenvalues --  -10.31038 -10.30484 -10.30365 -10.30350 -10.29501
  Beta  occ. eigenvalues --  -10.29329 -10.29321  -8.12080  -6.05698  -6.05439
  Beta  occ. eigenvalues --   -6.04970  -3.59845  -2.35162  -2.35018  -2.34616
  Beta  occ. eigenvalues --   -1.24680  -1.24113  -1.17583  -1.10598  -1.09949
  Beta  occ. eigenvalues --   -1.09627  -1.08723  -1.08470  -1.07587  -1.02995
  Beta  occ. eigenvalues --   -0.94549  -0.94162  -0.93109  -0.92688  -0.92101
  Beta  occ. eigenvalues --   -0.92004  -0.91846  -0.91381  -0.91059  -0.88500
  Beta  occ. eigenvalues --   -0.87858  -0.86646  -0.86442  -0.86388  -0.85224
  Beta  occ. eigenvalues --   -0.83443  -0.82725  -0.81494  -0.81196  -0.80530
  Beta  occ. eigenvalues --   -0.79207  -0.78044  -0.77699  -0.77261  -0.76677
  Beta  occ. eigenvalues --   -0.76414  -0.76277  -0.75142  -0.74149  -0.73610
  Beta  occ. eigenvalues --   -0.72098  -0.70907  -0.70540  -0.69803  -0.69497
  Beta  occ. eigenvalues --   -0.67704  -0.66293  -0.65248  -0.64462  -0.63611
  Beta  occ. eigenvalues --   -0.63160  -0.62641  -0.62393  -0.61511  -0.59699
  Beta  occ. eigenvalues --   -0.59415  -0.59370  -0.59241  -0.58932  -0.58470
  Beta  occ. eigenvalues --   -0.58369  -0.58135  -0.57889  -0.57286  -0.56549
  Beta  occ. eigenvalues --   -0.56254  -0.55960  -0.55286  -0.55041  -0.54733
  Beta  occ. eigenvalues --   -0.54588  -0.54407  -0.54290  -0.54055  -0.53948
  Beta  occ. eigenvalues --   -0.53756  -0.53550  -0.53210  -0.52914  -0.52814
  Beta  occ. eigenvalues --   -0.52775  -0.52243  -0.52045  -0.51961  -0.51814
  Beta  occ. eigenvalues --   -0.51540  -0.51449  -0.51092  -0.50980  -0.50639
  Beta  occ. eigenvalues --   -0.50472  -0.50305  -0.50050  -0.49637  -0.49395
  Beta  occ. eigenvalues --   -0.49164  -0.48940  -0.48763  -0.48374  -0.48190
  Beta  occ. eigenvalues --   -0.47926  -0.47900  -0.47676  -0.47236  -0.46948
  Beta  occ. eigenvalues --   -0.46418  -0.46282  -0.45838  -0.45671  -0.45346
  Beta  occ. eigenvalues --   -0.45186  -0.45125  -0.44865  -0.44478  -0.44164
  Beta  occ. eigenvalues --   -0.43742  -0.43419  -0.43285  -0.42545  -0.42203
  Beta  occ. eigenvalues --   -0.41149  -0.41048  -0.40890  -0.39903  -0.39454
  Beta  occ. eigenvalues --   -0.38975  -0.38690  -0.37476  -0.36567  -0.35766
  Beta  occ. eigenvalues --   -0.35544  -0.35374  -0.34763  -0.33979  -0.33594
  Beta  occ. eigenvalues --   -0.33312  -0.31028  -0.30417  -0.29322
  Beta virt. eigenvalues --   -0.20259  -0.17995  -0.16965  -0.15027  -0.14333
  Beta virt. eigenvalues --   -0.12626  -0.11035  -0.09591  -0.09375  -0.07792
  Beta virt. eigenvalues --   -0.07548  -0.06580  -0.06049  -0.05927  -0.05536

 Mulliken charges and spin densities:
               1          2
     1  C   -0.367625  -0.000495
     2  C    0.179245   0.002200
     3  N   -0.214750   0.003447
     4  C   -0.214066  -0.000301
     5  C    0.029443   0.024397
     6  N    0.082579  -0.047152
     7  H    0.151195  -0.000025
     8  H    0.138815   0.000027
     9  H    0.268638  -0.000434
    10  H    0.173216  -0.000324
    11  H    0.194641  -0.001409
    12  C   -0.355882  -0.000659
    13  C   -0.189885   0.001277
    14  S    0.062420  -0.042989
    15  C   -0.409967   0.003725
    16  H    0.151950   0.000025
    17  H    0.147120  -0.000082
    18  H    0.154959  -0.000989
    19  H    0.147862  -0.001061
    20  H    0.179800  -0.000706
    21  H    0.156517  -0.000795
    22  H    0.172478  -0.000095
    23  Fe  -0.271458   1.167103
    24  C   -0.438381  -0.033127
    25  C   -0.568334  -0.029944
    26  C   -0.528889   0.044419
    27  C   -0.580773   0.008081
    28  N   -0.006610  -0.054750
    29  C    0.109220   0.030704
    30  C    0.024213  -0.006286
    31  C   -0.037683   0.018848
    32  C    0.328757   0.017032
    33  C   -0.423606  -0.001533
    34  C   -0.323214  -0.000768
    35  C   -0.122165   0.000070
    36  C    0.280023   0.000019
    37  O   -0.350669   0.000004
    38  O   -0.332085  -0.000026
    39  N    0.084283  -0.059289
    40  C    0.208734   0.035489
    41  C   -0.027885  -0.165670
    42  C   -0.067690   0.158130
    43  C    0.268600  -0.053941
    44  C   -0.396286   0.007810
    45  C   -0.130727  -0.913703
    46  C   -0.361165   0.036986
    47  N    0.003293   0.005583
    48  C    0.259244  -0.047388
    49  C   -0.052558   0.173785
    50  C   -0.078928  -0.149730
    51  C    0.309464   0.018701
    52  C   -0.384969  -0.004532
    53  C   -0.134245   0.899265
    54  C   -0.358487  -0.030543
    55  N   -0.063502  -0.043019
    56  C    0.278702   0.001616
    57  C   -0.029189   0.018580
    58  C   -0.035029  -0.011750
    59  C    0.241966   0.029451
    60  C   -0.396649  -0.001505
    61  C   -0.294778   0.000023
    62  C   -0.231877  -0.000215
    63  C    0.285488   0.000055
    64  O   -0.272495   0.000001
    65  O   -0.348086  -0.000025
    66  H    0.158590   0.001475
    67  H    0.141791   0.001286
    68  H    0.150678  -0.001477
    69  H    0.124433  -0.000008
    70  H    0.160551   0.001143
    71  H    0.135460   0.000030
    72  H    0.160159   0.000682
    73  H    0.141887   0.000003
    74  H    0.149118  -0.000182
    75  H    0.114429  -0.000033
    76  H    0.065020  -0.000025
    77  H    0.146057  -0.005196
    78  H    0.161541  -0.000639
    79  H    0.148477  -0.006514
    80  H    0.092234   0.022282
    81  H    0.133882  -0.052224
    82  H    0.144214  -0.004586
    83  H    0.129072  -0.005082
    84  H    0.146637   0.003774
    85  H    0.145839  -0.000542
    86  H    0.145870   0.006213
    87  H    0.101577  -0.023120
    88  H    0.136547   0.051109
    89  H    0.145051   0.005348
    90  H    0.122818   0.003670
    91  H    0.141046   0.000336
    92  H    0.132287   0.000185
    93  H    0.159711   0.001076
    94  H    0.138677  -0.000307
    95  H    0.097578  -0.000181
    96  H    0.146021   0.000031
    97  H    0.130177  -0.000025
    98  H    0.121208  -0.000210
    99  H    0.156847   0.000117
   100  H    0.363824   0.000000
   101  H    0.338414  -0.000005
 Sum of Mulliken charges =   1.00000   1.00000

 Dipole moment (field-independent basis, Debye):
    X=              3.0245    Y=              0.0533    Z=              5.5760  Tot=              6.3437
 Quadrupole moment (field-independent basis, Debye-Ang):
   XX=           -246.7887   YY=           -282.1475   ZZ=           -286.7838
   XY=             -8.5419   XZ=            -32.4676   YZ=             16.8662

 Summary of Natural Population Analysis:

                                       Natural Population
                Natural  -----------------------------------------------
    Atom  No    Charge         Core      Valence    Rydberg      Total
 -----------------------------------------------------------------------
      C    1   -0.32016      0.99969     2.31468    0.00579     3.32016
      C    2    0.06145      0.99953     1.93008    0.00894     2.93855
      N    3   -0.23524      0.99967     2.72559    0.00998     3.73524
      C    4   -0.03498      0.99942     2.02587    0.00969     3.03498
      C    5    0.12599      0.99966     1.86382    0.01053     2.87401
      N    6   -0.18679      0.99966     2.66334    0.02379     3.68679
      H    7    0.12030      0.00000     0.37933    0.00037     0.37970
      H    8    0.11350      0.00000     0.38596    0.00054     0.38650
      H    9    0.21882      0.00000     0.28041    0.00077     0.28118
      H   10    0.12281      0.00000     0.37637    0.00082     0.37719
      H   11    0.11653      0.00000     0.38224    0.00123     0.38347
      C   12   -0.30849      0.99972     2.30311    0.00565     3.30849
      C   13   -0.26956      0.99967     2.26102    0.00887     3.26956
      S   14    0.26496      4.99934     2.71419    0.02151     7.73504
      C   15   -0.37289      0.99967     2.36459    0.00863     3.37289
      H   16    0.11189      0.00000     0.38718    0.00093     0.38811
      H   17    0.11197      0.00000     0.38755    0.00048     0.38803
      H   18    0.11931      0.00000     0.37999    0.00071     0.38069
      H   19    0.11746      0.00000     0.38150    0.00104     0.38254
      H   20    0.12005      0.00000     0.37938    0.00057     0.37995
      H   21    0.11354      0.00000     0.38545    0.00101     0.38646
      H   22    0.12531      0.00000     0.37427    0.00042     0.37469
     Fe   23    0.67514      8.99582     3.30226    0.02678    12.32486
      C   24   -0.13444      0.99949     2.12651    0.00844     3.13444
      C   25   -0.12717      0.99952     2.11964    0.00801     3.12717
      C   26   -0.09855      0.99947     2.09088    0.00820     3.09855
      C   27   -0.11267      0.99947     2.10483    0.00837     3.11267
      N   28   -0.22633      0.99967     2.70155    0.02511     3.72633
      C   29    0.08994      0.99951     1.89986    0.01069     2.91006
      C   30   -0.01559      0.99946     2.00685    0.00928     3.01559
      C   31    0.00942      0.99948     1.98315    0.00796     2.99058
      C   32    0.08104      0.99953     1.90868    0.01075     2.91896
      C   33   -0.32503      0.99970     2.32138    0.00395     3.32503
      C   34   -0.21625      0.99966     2.20980    0.00680     3.21625
      C   35   -0.25005      0.99964     2.24217    0.00823     3.25005
      C   36    0.38522      0.99975     1.59695    0.01808     2.61478
      O   37   -0.34232      0.99979     3.32786    0.01467     4.34232
      O   38   -0.27883      0.99989     3.26709    0.01184     4.27883
      N   39   -0.21629      0.99964     2.69313    0.02352     3.71629
      C   40    0.08606      0.99952     1.90405    0.01037     2.91394
      C   41   -0.06863      0.99949     2.06035    0.00879     3.06863
      C   42    0.00726      0.99944     1.98342    0.00988     2.99274
      C   43    0.05482      0.99950     1.93407    0.01161     2.94518
      C   44   -0.32430      0.99970     2.31780    0.00680     3.32430
      C   45   -0.47161      0.99968     2.46260    0.00933     3.47161
      C   46   -0.31877      0.99973     2.31496    0.00408     3.31877
      N   47   -0.19152      0.99966     2.66737    0.02449     3.69152
      C   48    0.05653      0.99950     1.93317    0.01080     2.94347
      C   49    0.07577      0.99947     1.91665    0.00811     2.92423
      C   50   -0.10397      0.99942     2.09500    0.00955     3.10397
      C   51    0.08951      0.99950     1.90065    0.01034     2.91049
      C   52   -0.32843      0.99971     2.32255    0.00618     3.32843
      C   53    0.41221      0.99925     1.58105    0.00748     2.58779
      C   54   -0.34791      0.99971     2.34517    0.00302     3.34791
      N   55   -0.22503      0.99967     2.70096    0.02440     3.72503
      C   56    0.07493      0.99950     1.91471    0.01086     2.92507
      C   57    0.00731      0.99946     1.98489    0.00834     2.99269
      C   58   -0.02115      0.99946     2.01183    0.00987     3.02115
      C   59    0.09179      0.99952     1.89824    0.01045     2.90821
      C   60   -0.32279      0.99970     2.31929    0.00380     3.32279
      C   61   -0.22013      0.99967     2.21311    0.00734     3.22013
      C   62   -0.26301      0.99965     2.25464    0.00872     3.26301
      C   63    0.37879      0.99974     1.60415    0.01731     2.62121
      O   64   -0.30991      0.99981     3.29460    0.01550     4.30991
      O   65   -0.28575      0.99989     3.27353    0.01232     4.28575
      H   66    0.11711      0.00000     0.38113    0.00176     0.38289
      H   67    0.11913      0.00000     0.37959    0.00128     0.38087
      H   68    0.11829      0.00000     0.38030    0.00141     0.38171
      H   69    0.11615      0.00000     0.38250    0.00135     0.38385
      H   70    0.11860      0.00000     0.38069    0.00071     0.38140
      H   71    0.11164      0.00000     0.38784    0.00052     0.38836
      H   72    0.11872      0.00000     0.38056    0.00073     0.38128
      H   73    0.11505      0.00000     0.38408    0.00088     0.38495
      H   74    0.11900      0.00000     0.38024    0.00077     0.38100
      H   75    0.11699      0.00000     0.38232    0.00070     0.38301
      H   76    0.10230      0.00000     0.39702    0.00069     0.39770
      H   77    0.11244      0.00000     0.38687    0.00070     0.38756
      H   78    0.11887      0.00000     0.38052    0.00061     0.38113
      H   79    0.11295      0.00000     0.38632    0.00073     0.38705
      H   80    0.09126      0.00000     0.40793    0.00080     0.40874
      H   81    0.08743      0.00000     0.41103    0.00154     0.41257
      H   82    0.11024      0.00000     0.38913    0.00063     0.38976
      H   83    0.10332      0.00000     0.39592    0.00075     0.39668
      H   84    0.11658      0.00000     0.38286    0.00056     0.38342
      H   85    0.11824      0.00000     0.38113    0.00063     0.38176
      H   86    0.11778      0.00000     0.38158    0.00064     0.38222
      H   87    0.07396      0.00000     0.42519    0.00086     0.42604
      H   88    0.13528      0.00000     0.36424    0.00048     0.36472
      H   89    0.11477      0.00000     0.38459    0.00064     0.38523
      H   90    0.10841      0.00000     0.39084    0.00075     0.39159
      H   91    0.11356      0.00000     0.38581    0.00063     0.38644
      H   92    0.11272      0.00000     0.38652    0.00076     0.38728
      H   93    0.11689      0.00000     0.38236    0.00075     0.38311
      H   94    0.11292      0.00000     0.38624    0.00083     0.38708
      H   95    0.10224      0.00000     0.39668    0.00107     0.39776
      H   96    0.12545      0.00000     0.37383    0.00072     0.37455
      H   97    0.11698      0.00000     0.38241    0.00062     0.38302
      H   98    0.11136      0.00000     0.38811    0.00053     0.38864
      H   99    0.11690      0.00000     0.38256    0.00053     0.38310
      H  100    0.26209      0.00000     0.23679    0.00112     0.23791
      H  101    0.24932      0.00000     0.24975    0.00093     0.25068
 =======================================================================
   * Total *    1.00000     64.97491   138.39278    0.63231   204.00000

 Normal termination of Gaussian 16 at Wed Feb  8 16:39:57 2023.
