 Gaussian 16, Revision A.03,

 ---------------------------------------------------------------------
 # polar def2tzvp empiricaldispersion=gd3bj int=grid=ultrafine pbe1pbe
 ---------------------------------------------------------------------

 ---------
 1giw_II_S
 ---------
 Symbolic Z-matrix:
 Charge =  0 Multiplicity = 1

 SCF Done:  E(RPBE1PBE) =  -3880.50967884     A.U. after   29 cycles

  Exact polarizability: 912.682 -44.8911004.957 -31.763 158.281 495.221
 Approx polarizability:1984.506********6062.807-465.9851982.2311436.552

 Normal termination of Gaussian 16 at Sun Feb  5 08:22:33 2023.
 Gaussian 16:  ES64L-G16RevA.03 25-Dec-2016

 ----------------------------------------------------------------------
 # PBE1PBE/def2TZVP empiricaldispersion=GD3BJ int=(grid=ultrafine) geom
 =check guess=read pop=nbo scf=qc
 ----------------------------------------------------------------------

 -------------
 1giw_II_S_nbo
 -------------
 Structure from the checkpoint file:  "1giw_II_S.chk"
 Charge =  0 Multiplicity = 1

                         Standard orientation:
 ---------------------------------------------------------------------
 Center     Atomic      Atomic             Coordinates (Angstroms)
 Number     Number       Type             X           Y           Z
 ---------------------------------------------------------------------
      1          6           0        2.528443   -2.047617    4.741988
      2          6           0        1.672587   -1.350763    3.744258
      3          7           0        0.308024   -1.457780    3.688063
      4          6           0        2.117944   -0.854803    2.551700
      5          6           0       -0.062201   -1.019609    2.480801
      6          7           0        0.985248   -0.605338    1.762921
      7          1           0        3.513208   -2.171835    4.342353
      8          1           0        2.109575   -3.007094    4.963015
      9          1           0       -0.288915   -1.952203    4.344879
     10          1           0        3.163733   -0.861097    2.257362
     11          1           0       -1.047237   -1.123663    2.074236
     12          6           0       -0.487907    3.160856   -2.880346
     13          6           0        0.753236    2.274983   -2.793670
     14         16           0        0.351412    0.576924   -2.310745
     15          6           0        1.193991   -0.437063   -3.554004
     16          1           0       -1.284767    2.713833   -2.323493
     17          1           0       -0.781974    3.263625   -3.903998
     18          1           0        1.236634    2.280849   -3.770136
     19          1           0        1.469716    2.662646   -2.074132
     20          1           0        0.887097   -0.137959   -4.559645
     21          1           0        2.272097   -0.321462   -3.434133
     22          1           0        0.917699   -1.480788   -3.411374
     23         26           0        0.851200   -0.134091   -0.114737
     24          6           0       -2.685808   -0.193822   -0.090357
     25          6           0        0.958186   -3.449554   -0.840383
     26          6           0        4.256478    0.166276   -0.228549
     27          6           0        0.660946    3.248850    0.835466
     28          7           0       -0.616053   -1.562596   -0.463388
     29          6           0       -1.979180   -1.373847   -0.370409
     30          6           0       -2.598153   -2.667103   -0.560241
     31          6           0       -1.590422   -3.574909   -0.829104
     32          6           0       -0.324064   -2.874112   -0.712721
     33          6           0       -1.806219   -5.022677   -1.224541
     34          6           0       -4.083954   -2.978856   -0.485540
     35          6           0       -4.799711   -2.544452    0.803383
     36          6           0       -5.941381   -3.475852    1.193845
     37          8           0       -7.071233   -3.229773    0.714004
     38          8           0       -5.666235   -4.430335    1.949723
     39          7           0        2.338634   -1.399639   -0.481269
     40          6           0        2.165519   -2.722756   -0.741667
     41          6           0        3.488225   -3.295029   -0.855939
     42          6           0        4.410569   -2.267734   -0.770219
     43          6           0        3.666939   -1.072159   -0.476675
     44          6           0        3.778655   -4.768237   -0.913968
     45          6           0        5.909248   -2.311193   -1.035668
     46          6           0        6.232967   -2.760997   -2.460139
     47          7           0        2.206747    1.423832    0.224648
     48          6           0        3.543850    1.284112    0.133641
     49          6           0        4.158485    2.526835    0.517627
     50          6           0        3.149390    3.354172    0.951780
     51          6           0        1.907393    2.683927    0.643660
     52          6           0        5.642271    2.789578    0.549710
     53          6           0        3.289610    4.558670    1.862947
     54          6           0        3.743899    5.839569    1.162601
     55          7           0       -0.737386    1.287959    0.283469
     56          6           0       -0.539155    2.583475    0.644273
     57          6           0       -1.827735    3.204281    0.821694
     58          6           0       -2.781397    2.247343    0.568310
     59          6           0       -2.077091    1.025002    0.219928
     60          6           0       -2.075101    4.628643    1.259981
     61          6           0       -4.279099    2.453789    0.681172
     62          6           0       -5.043527    2.171806   -0.616278
     63          6           0       -5.556165    3.401845   -1.367487
     64          8           0       -6.004668    4.394448   -0.747297
     65          8           0       -5.534963    3.299995   -2.609088
     66          1           0       -3.759515   -0.226535   -0.087202
     67          1           0        1.032060   -4.505789   -1.034615
     68          1           0        5.324717    0.274349   -0.237356
     69          1           0        0.620761    4.286706    1.109261
     70          1           0       -2.273543   -5.060240   -2.210059
     71          1           0       -0.880697   -5.595160   -1.262635
     72          1           0       -2.471265   -5.500094   -0.507947
     73          1           0       -4.575232   -2.492297   -1.323351
     74          1           0       -4.217837   -4.054553   -0.585099
     75          1           0       -4.072388   -2.546773    1.608614
     76          1           0       -5.240553   -1.553873    0.696421
     77          1           0        3.350121   -5.219196   -1.808147
     78          1           0        4.848405   -4.933969   -0.901059
     79          1           0        3.343754   -5.227528   -0.029196
     80          1           0        6.350859   -1.325813   -0.963823
     81          1           0        5.783597   -2.059247   -3.163035
     82          1           0        7.312270   -2.781775   -2.603166
     83          1           0        5.823343   -3.745913   -2.650847
     84          1           0        6.055306    2.603094   -0.441598
     85          1           0        5.856244    3.814934    0.836161
     86          1           0        6.110038    2.119024    1.269996
     87          1           0        2.322886    4.787984    2.293245
     88          1           0        2.974367    6.132744    0.449281
     89          1           0        3.862354    6.631084    1.901739
     90          1           0        4.686720    5.688731    0.641138
     91          1           0       -1.312254    5.295469    0.861168
     92          1           0       -3.034935    4.979380    0.901953
     93          1           0       -2.065661    4.675749    2.346604
     94          1           0       -4.663977    1.805481    1.467616
     95          1           0       -4.510661    3.464395    1.003036
     96          1           0       -4.385629    1.633045   -1.297540
     97          1           0       -5.893429    1.527729   -0.393954
     98          1           0       -0.266490    4.125727   -2.474270
     99          1           0        2.578062   -1.465087    5.638144
    100          1           0       -7.755124   -2.846864    1.268327
    101          1           0       -6.100415    4.360849    0.207325
 ---------------------------------------------------------------------

 SCF Done:  E(RPBE1PBE) =  -3880.50967884     a.u. after    1 cycles

 The electronic state is 1-A.
 Alpha  occ. eigenvalues -- -256.31898 -89.01973 -30.08664 -25.91468 -25.91214
 Alpha  occ. eigenvalues --  -25.91039 -19.28148 -19.26732 -19.19287 -19.17490
 Alpha  occ. eigenvalues --  -14.45664 -14.40438 -14.37680 -14.37555 -14.37104
 Alpha  occ. eigenvalues --  -14.37032 -10.36278 -10.35545 -10.28708 -10.26431
 Alpha  occ. eigenvalues --  -10.25857 -10.25764 -10.25731 -10.25273 -10.24948
 Alpha  occ. eigenvalues --  -10.24942 -10.24809 -10.24643 -10.24371 -10.24044
 Alpha  occ. eigenvalues --  -10.23987 -10.23968 -10.23942 -10.23928 -10.23686
 Alpha  occ. eigenvalues --  -10.23553 -10.23273 -10.23053 -10.22984 -10.22938
 Alpha  occ. eigenvalues --  -10.22852 -10.22743 -10.22719 -10.22649 -10.22465
 Alpha  occ. eigenvalues --  -10.22240 -10.22224 -10.22043 -10.22001 -10.21933
 Alpha  occ. eigenvalues --  -10.21522 -10.21127 -10.21079 -10.20815 -10.20740
 Alpha  occ. eigenvalues --  -10.20666 -10.19826  -7.99747  -5.93418  -5.93104
 Alpha  occ. eigenvalues --   -5.92566  -3.43187  -2.19179  -2.18569  -2.18303
 Alpha  occ. eigenvalues --   -1.17892  -1.17638  -1.06442  -1.03934  -1.03070
 Alpha  occ. eigenvalues --   -0.98471  -0.97597  -0.97491  -0.96644  -0.91490
 Alpha  occ. eigenvalues --   -0.84538  -0.84026  -0.83436  -0.82981  -0.81837
 Alpha  occ. eigenvalues --   -0.81541  -0.81315  -0.81000  -0.80839  -0.79434
 Alpha  occ. eigenvalues --   -0.78936  -0.76591  -0.76037  -0.75944  -0.75630
 Alpha  occ. eigenvalues --   -0.74018  -0.72861  -0.72534  -0.71702  -0.70638
 Alpha  occ. eigenvalues --   -0.70271  -0.70095  -0.69218  -0.67750  -0.66746
 Alpha  occ. eigenvalues --   -0.66660  -0.66086  -0.65464  -0.65253  -0.62800
 Alpha  occ. eigenvalues --   -0.61718  -0.61158  -0.59868  -0.59270  -0.59049
 Alpha  occ. eigenvalues --   -0.57001  -0.56620  -0.55186  -0.55115  -0.54044
 Alpha  occ. eigenvalues --   -0.53332  -0.52473  -0.52323  -0.52057  -0.51701
 Alpha  occ. eigenvalues --   -0.51267  -0.51011  -0.50343  -0.48996  -0.48850
 Alpha  occ. eigenvalues --   -0.48622  -0.48316  -0.48276  -0.47679  -0.47198
 Alpha  occ. eigenvalues --   -0.46588  -0.45967  -0.45902  -0.45581  -0.45497
 Alpha  occ. eigenvalues --   -0.45027  -0.44662  -0.44558  -0.44134  -0.44074
 Alpha  occ. eigenvalues --   -0.43835  -0.43735  -0.43672  -0.43460  -0.43252
 Alpha  occ. eigenvalues --   -0.42917  -0.42731  -0.42637  -0.42536  -0.42274
 Alpha  occ. eigenvalues --   -0.41879  -0.41635  -0.41466  -0.41263  -0.41081
 Alpha  occ. eigenvalues --   -0.40820  -0.40710  -0.40621  -0.40314  -0.40086
 Alpha  occ. eigenvalues --   -0.40043  -0.39905  -0.39267  -0.38853  -0.38483
 Alpha  occ. eigenvalues --   -0.38269  -0.38197  -0.38060  -0.37693  -0.37278
 Alpha  occ. eigenvalues --   -0.37160  -0.36713  -0.36481  -0.36095  -0.35743
 Alpha  occ. eigenvalues --   -0.35507  -0.35302  -0.34966  -0.34253  -0.34050
 Alpha  occ. eigenvalues --   -0.33872  -0.33551  -0.33049  -0.32620  -0.32494
 Alpha  occ. eigenvalues --   -0.32285  -0.30558  -0.29681  -0.29246  -0.28776
 Alpha  occ. eigenvalues --   -0.28566  -0.28367  -0.27375  -0.26227  -0.25492
 Alpha  occ. eigenvalues --   -0.24655  -0.24299  -0.23711  -0.23627  -0.21010
 Alpha  occ. eigenvalues --   -0.20335  -0.19748  -0.19454  -0.19266  -0.14855
 Alpha virt. eigenvalues --   -0.12475  -0.07433  -0.07057  -0.02713  -0.01252
 Alpha virt. eigenvalues --   -0.00277   0.00622   0.00961   0.01555   0.01998
 Alpha virt. eigenvalues --    0.02183   0.03413   0.03528   0.03640   0.03785

 Mulliken charges:
               1
     1  C   -0.376190
     2  C    0.180909
     3  N   -0.235850
     4  C   -0.216516
     5  C    0.010601
     6  N    0.068561
     7  H    0.147073
     8  H    0.123709
     9  H    0.248053
    10  H    0.160153
    11  H    0.176753
    12  C   -0.348245
    13  C   -0.182381
    14  S    0.028313
    15  C   -0.408089
    16  H    0.151569
    17  H    0.125574
    18  H    0.129485
    19  H    0.139361
    20  H    0.151160
    21  H    0.144270
    22  H    0.159561
    23  Fe  -0.294839
    24  C   -0.465938
    25  C   -0.574012
    26  C   -0.552309
    27  C   -0.604381
    28  N   -0.017075
    29  C    0.115574
    30  C    0.020746
    31  C   -0.037111
    32  C    0.322260
    33  C   -0.436517
    34  C   -0.323831
    35  C   -0.116381
    36  C    0.276853
    37  O   -0.353846
    38  O   -0.340974
    39  N    0.064141
    40  C    0.201644
    41  C   -0.036551
    42  C   -0.041954
    43  C    0.269574
    44  C   -0.408058
    45  C   -0.204067
    46  C   -0.348784
    47  N    0.003530
    48  C    0.272095
    49  C   -0.068414
    50  C   -0.058117
    51  C    0.310847
    52  C   -0.403383
    53  C   -0.209511
    54  C   -0.348726
    55  N   -0.074119
    56  C    0.283804
    57  C   -0.019509
    58  C   -0.040680
    59  C    0.247106
    60  C   -0.408024
    61  C   -0.300354
    62  C   -0.226525
    63  C    0.285829
    64  O   -0.280651
    65  O   -0.356217
    66  H    0.139349
    67  H    0.122944
    68  H    0.130561
    69  H    0.107291
    70  H    0.145822
    71  H    0.128890
    72  H    0.146465
    73  H    0.129871
    74  H    0.135116
    75  H    0.118851
    76  H    0.060025
    77  H    0.131368
    78  H    0.150228
    79  H    0.134941
    80  H    0.079921
    81  H    0.129208
    82  H    0.120975
    83  H    0.116736
    84  H    0.134526
    85  H    0.134320
    86  H    0.131887
    87  H    0.085916
    88  H    0.130360
    89  H    0.121899
    90  H    0.109551
    91  H    0.137139
    92  H    0.117249
    93  H    0.146012
    94  H    0.126609
    95  H    0.084219
    96  H    0.154239
    97  H    0.117000
    98  H    0.105746
    99  H    0.140806
   100  H    0.356429
   101  H    0.336559
 Sum of Mulliken charges =  -0.00000

 Dipole moment (field-independent basis, Debye):
    X=             -3.0756    Y=             -0.4919    Z=              5.2084  Tot=              6.0687
 Quadrupole moment (field-independent basis, Debye-Ang):
   XX=           -316.2369   YY=           -336.8499   ZZ=           -316.6043
   XY=             -9.1596   XZ=            -33.6449   YZ=             11.7277

 Summary of Natural Population Analysis:

                                       Natural Population
                Natural  -----------------------------------------------
    Atom  No    Charge         Core      Valence    Rydberg      Total
 -----------------------------------------------------------------------
      C    1   -0.63540      1.99938     4.62973    0.00629     6.63540
      C    2    0.09721      1.99906     3.88493    0.01881     5.90279
      N    3   -0.49062      1.99934     5.47053    0.02075     7.49062
      C    4   -0.07143      1.99885     4.05309    0.01949     6.07143
      C    5    0.19286      1.99932     3.78554    0.02228     5.80714
      N    6   -0.33222      1.99932     5.27782    0.05507     7.33222
      H    7    0.23548      0.00000     0.76360    0.00093     0.76452
      H    8    0.21539      0.00000     0.78316    0.00145     0.78461
      H    9    0.42312      0.00000     0.57524    0.00164     0.57688
      H   10    0.23841      0.00000     0.75998    0.00161     0.76159
      H   11    0.22517      0.00000     0.77244    0.00239     0.77483
      C   12   -0.61537      1.99945     4.60759    0.00833     6.61537
      C   13   -0.54205      1.99935     4.52444    0.01826     6.54205
      S   14    0.52650      9.99870     5.43173    0.04307    15.47350
      C   15   -0.75201      1.99936     4.73515    0.01750     6.75201
      H   16    0.22454      0.00000     0.77316    0.00230     0.77546
      H   17    0.21090      0.00000     0.78780    0.00130     0.78910
      H   18    0.22406      0.00000     0.77445    0.00149     0.77594
      H   19    0.23059      0.00000     0.76707    0.00234     0.76941
      H   20    0.21951      0.00000     0.77912    0.00137     0.78049
      H   21    0.22012      0.00000     0.77764    0.00224     0.77988
      H   22    0.24348      0.00000     0.75562    0.00090     0.75652
     Fe   23    0.03236     17.99132     7.92728    0.04904    25.96764
      C   24   -0.26533      1.99897     4.24887    0.01749     6.26533
      C   25   -0.22638      1.99903     4.21115    0.01619     6.22638
      C   26   -0.26086      1.99894     4.24524    0.01668     6.26086
      C   27   -0.24266      1.99895     4.22602    0.01768     6.24266
      N   28   -0.39969      1.99936     5.35208    0.04825     7.39969
      C   29    0.15212      1.99903     3.82733    0.02153     5.84788
      C   30   -0.04502      1.99892     4.02719    0.01891     6.04502
      C   31   -0.01689      1.99895     4.00093    0.01701     6.01689
      C   32    0.14829      1.99907     3.83072    0.02191     5.85171
      C   33   -0.64568      1.99941     4.63835    0.00791     6.64568
      C   34   -0.42708      1.99933     4.41389    0.01387     6.42708
      C   35   -0.50178      1.99929     4.48564    0.01685     6.50178
      C   36    0.77263      1.99951     3.19139    0.03647     5.22737
      O   37   -0.68865      1.99958     6.65970    0.02937     8.68865
      O   38   -0.56827      1.99978     6.54483    0.02366     8.56827
      N   39   -0.39621      1.99930     5.34974    0.04717     7.39621
      C   40    0.15108      1.99907     3.82845    0.02140     5.84892
      C   41   -0.03048      1.99896     4.01318    0.01834     6.03048
      C   42   -0.06248      1.99887     4.04250    0.02111     6.06248
      C   43    0.15796      1.99900     3.82060    0.02244     5.84204
      C   44   -0.64892      1.99941     4.64103    0.00849     6.64892
      C   45   -0.18132      1.99911     4.16052    0.02169     6.18132
      C   46   -0.64973      1.99943     4.64252    0.00777     6.64973
      N   47   -0.35665      1.99933     5.30932    0.04800     7.35665
      C   48    0.14845      1.99901     3.83094    0.02160     5.85155
      C   49   -0.03784      1.99892     4.02060    0.01831     6.03784
      C   50   -0.06725      1.99887     4.04709    0.02129     6.06725
      C   51    0.16160      1.99901     3.81668    0.02272     5.83840
      C   52   -0.64469      1.99942     4.63674    0.00853     6.64469
      C   53   -0.18705      1.99912     4.16441    0.02352     6.18705
      C   54   -0.64724      1.99942     4.64001    0.00781     6.64724
      N   55   -0.40960      1.99936     5.35961    0.05063     7.40960
      C   56    0.15325      1.99902     3.82518    0.02255     5.84675
      C   57   -0.01485      1.99893     3.99828    0.01764     6.01485
      C   58   -0.05326      1.99891     4.03371    0.02063     6.05326
      C   59    0.16102      1.99905     3.81864    0.02130     5.83898
      C   60   -0.64196      1.99941     4.63485    0.00770     6.64196
      C   61   -0.43547      1.99935     4.42097    0.01515     6.43547
      C   62   -0.52744      1.99929     4.51043    0.01771     6.52744
      C   63    0.76032      1.99948     3.20525    0.03494     5.23968
      O   64   -0.62678      1.99962     6.59648    0.03068     8.62678
      O   65   -0.58043      1.99978     6.55610    0.02455     8.58043
      H   66    0.21835      0.00000     0.77818    0.00348     0.78165
      H   67    0.22436      0.00000     0.77296    0.00267     0.77564
      H   68    0.22626      0.00000     0.77061    0.00312     0.77374
      H   69    0.22338      0.00000     0.77378    0.00284     0.77662
      H   70    0.22495      0.00000     0.77346    0.00159     0.77505
      H   71    0.21908      0.00000     0.77985    0.00107     0.78092
      H   72    0.22602      0.00000     0.77237    0.00161     0.77398
      H   73    0.22211      0.00000     0.77596    0.00193     0.77789
      H   74    0.22991      0.00000     0.76849    0.00160     0.77009
      H   75    0.23796      0.00000     0.76063    0.00142     0.76204
      H   76    0.20414      0.00000     0.79447    0.00139     0.79586
      H   77    0.21848      0.00000     0.77988    0.00164     0.78152
      H   78    0.23064      0.00000     0.76768    0.00168     0.76936
      H   79    0.22152      0.00000     0.77675    0.00174     0.77848
      H   80    0.17082      0.00000     0.82742    0.00177     0.82918
      H   81    0.21398      0.00000     0.78284    0.00318     0.78602
      H   82    0.20964      0.00000     0.78896    0.00140     0.79036
      H   83    0.20756      0.00000     0.79082    0.00162     0.79244
      H   84    0.21986      0.00000     0.77863    0.00151     0.78014
      H   85    0.22688      0.00000     0.77156    0.00156     0.77312
      H   86    0.22044      0.00000     0.77762    0.00194     0.77956
      H   87    0.16635      0.00000     0.83189    0.00176     0.83365
      H   88    0.21212      0.00000     0.78479    0.00309     0.78788
      H   89    0.20800      0.00000     0.79046    0.00154     0.79200
      H   90    0.20543      0.00000     0.79285    0.00172     0.79457
      H   91    0.22392      0.00000     0.77472    0.00136     0.77608
      H   92    0.21418      0.00000     0.78418    0.00164     0.78582
      H   93    0.22378      0.00000     0.77453    0.00169     0.77622
      H   94    0.21877      0.00000     0.77945    0.00179     0.78123
      H   95    0.19601      0.00000     0.80175    0.00224     0.80399
      H   96    0.25783      0.00000     0.74068    0.00149     0.74217
      H   97    0.22718      0.00000     0.77151    0.00131     0.77282
      H   98    0.21323      0.00000     0.78535    0.00142     0.78677
      H   99    0.22014      0.00000     0.77841    0.00145     0.77986
      H  100    0.51923      0.00000     0.47838    0.00239     0.48077
      H  101    0.49814      0.00000     0.49991    0.00194     0.50186
 =======================================================================
   * Total *    0.00000    129.95004   278.75608    1.29388   410.00000

 Normal termination of Gaussian 16 at Sun Feb  5 09:24:49 2023.
