 Gaussian 16, Revision A.03,
 Gaussian 16:  ES64L-G16RevA.03 25-Dec-2016

 ----------------------------------------------------------------------
 # PBE1PBE/def2TZVP empiricaldispersion=GD3BJ scf=maxcycle=999 geom=che
 ck pop=nbo
 ----------------------------------------------------------------------

 ----------
 1giw_III_H
 ----------
 Structure from the checkpoint file:  "1giw_III_H.chk"
 Charge =  1 Multiplicity = 6

                         Standard orientation:
 ---------------------------------------------------------------------
 Center     Atomic      Atomic             Coordinates (Angstroms)
 Number     Number       Type             X           Y           Z
 ---------------------------------------------------------------------
      1          6           0        2.528443   -2.047617    4.741988
      2          6           0        1.672587   -1.350763    3.744258
      3          7           0        0.308024   -1.457780    3.688063
      4          6           0        2.117944   -0.854803    2.551700
      5          6           0       -0.062201   -1.019609    2.480801
      6          7           0        0.985248   -0.605338    1.762921
      7          1           0        3.513208   -2.171835    4.342353
      8          1           0        2.109575   -3.007094    4.963015
      9          1           0       -0.288915   -1.952203    4.344879
     10          1           0        3.163733   -0.861097    2.257362
     11          1           0       -1.047237   -1.123663    2.074236
     12          6           0       -0.487907    3.160856   -2.880346
     13          6           0        0.753236    2.274983   -2.793670
     14         16           0        0.351412    0.576924   -2.310745
     15          6           0        1.193991   -0.437063   -3.554004
     16          1           0       -1.284767    2.713833   -2.323493
     17          1           0       -0.781974    3.263625   -3.903998
     18          1           0        1.236634    2.280849   -3.770136
     19          1           0        1.469716    2.662646   -2.074132
     20          1           0        0.887097   -0.137959   -4.559645
     21          1           0        2.272097   -0.321462   -3.434133
     22          1           0        0.917699   -1.480788   -3.411374
     23         26           0        0.851200   -0.134091   -0.114737
     24          6           0       -2.685808   -0.193822   -0.090357
     25          6           0        0.958186   -3.449554   -0.840383
     26          6           0        4.256478    0.166276   -0.228549
     27          6           0        0.660946    3.248850    0.835466
     28          7           0       -0.616053   -1.562596   -0.463388
     29          6           0       -1.979180   -1.373847   -0.370409
     30          6           0       -2.598153   -2.667103   -0.560241
     31          6           0       -1.590422   -3.574909   -0.829104
     32          6           0       -0.324064   -2.874112   -0.712721
     33          6           0       -1.806219   -5.022677   -1.224541
     34          6           0       -4.083954   -2.978856   -0.485540
     35          6           0       -4.799711   -2.544452    0.803383
     36          6           0       -5.941381   -3.475852    1.193845
     37          8           0       -7.071233   -3.229773    0.714004
     38          8           0       -5.666235   -4.430335    1.949723
     39          7           0        2.338634   -1.399639   -0.481269
     40          6           0        2.165519   -2.722756   -0.741667
     41          6           0        3.488225   -3.295029   -0.855939
     42          6           0        4.410569   -2.267734   -0.770219
     43          6           0        3.666939   -1.072159   -0.476675
     44          6           0        3.778655   -4.768237   -0.913968
     45          6           0        5.909248   -2.311193   -1.035668
     46          6           0        6.232967   -2.760997   -2.460139
     47          7           0        2.206747    1.423832    0.224648
     48          6           0        3.543850    1.284112    0.133641
     49          6           0        4.158485    2.526835    0.517627
     50          6           0        3.149390    3.354172    0.951780
     51          6           0        1.907393    2.683927    0.643660
     52          6           0        5.642271    2.789578    0.549710
     53          6           0        3.289610    4.558670    1.862947
     54          6           0        3.743899    5.839569    1.162601
     55          7           0       -0.737386    1.287959    0.283469
     56          6           0       -0.539155    2.583475    0.644273
     57          6           0       -1.827735    3.204281    0.821694
     58          6           0       -2.781397    2.247343    0.568310
     59          6           0       -2.077091    1.025002    0.219928
     60          6           0       -2.075101    4.628643    1.259981
     61          6           0       -4.279099    2.453789    0.681172
     62          6           0       -5.043527    2.171806   -0.616278
     63          6           0       -5.556165    3.401845   -1.367487
     64          8           0       -6.004668    4.394448   -0.747297
     65          8           0       -5.534963    3.299995   -2.609088
     66          1           0       -3.759515   -0.226535   -0.087202
     67          1           0        1.032060   -4.505789   -1.034615
     68          1           0        5.324717    0.274349   -0.237356
     69          1           0        0.620761    4.286706    1.109261
     70          1           0       -2.273543   -5.060240   -2.210059
     71          1           0       -0.880697   -5.595160   -1.262635
     72          1           0       -2.471265   -5.500094   -0.507947
     73          1           0       -4.575232   -2.492297   -1.323351
     74          1           0       -4.217837   -4.054553   -0.585099
     75          1           0       -4.072388   -2.546773    1.608614
     76          1           0       -5.240553   -1.553873    0.696421
     77          1           0        3.350121   -5.219196   -1.808147
     78          1           0        4.848405   -4.933969   -0.901059
     79          1           0        3.343754   -5.227528   -0.029196
     80          1           0        6.350859   -1.325813   -0.963823
     81          1           0        5.783597   -2.059247   -3.163035
     82          1           0        7.312270   -2.781775   -2.603166
     83          1           0        5.823343   -3.745913   -2.650847
     84          1           0        6.055306    2.603094   -0.441598
     85          1           0        5.856244    3.814934    0.836161
     86          1           0        6.110038    2.119024    1.269996
     87          1           0        2.322886    4.787984    2.293245
     88          1           0        2.974367    6.132744    0.449281
     89          1           0        3.862354    6.631084    1.901739
     90          1           0        4.686720    5.688731    0.641138
     91          1           0       -1.312254    5.295469    0.861168
     92          1           0       -3.034935    4.979380    0.901953
     93          1           0       -2.065661    4.675749    2.346604
     94          1           0       -4.663977    1.805481    1.467616
     95          1           0       -4.510661    3.464395    1.003036
     96          1           0       -4.385629    1.633045   -1.297540
     97          1           0       -5.893429    1.527729   -0.393954
     98          1           0       -0.266490    4.125727   -2.474270
     99          1           0        2.578062   -1.465087    5.638144
    100          1           0       -7.755124   -2.846864    1.268327
    101          1           0       -6.100415    4.360849    0.207325
 ---------------------------------------------------------------------

 SCF Done:  E(UPBE1PBE) =  -3880.35711135     A.U. after  122 cycles

 Alpha virt. eigenvalues --    0.94016   0.94325   0.94354   0.94675   0.94758
 Alpha virt. eigenvalues --    0.95213   0.95503   0.95973   0.96423   0.96442
 Alpha virt. eigenvalues --    0.96771   0.97110   0.97327   0.97493   0.97810

  Beta  occ. eigenvalues -- -256.52117 -89.15906 -30.26422 -26.10528 -26.09316
  Beta  occ. eigenvalues --  -26.08413 -19.34879 -19.33067 -19.25906 -19.24376
  Beta  occ. eigenvalues --  -14.56598 -14.53472 -14.48350 -14.47880 -14.47685
  Beta  occ. eigenvalues --  -14.47645 -10.43010 -10.42529 -10.40578 -10.37270
  Beta  occ. eigenvalues --  -10.36007 -10.35938 -10.35894 -10.35882 -10.35790
  Beta  occ. eigenvalues --  -10.35703 -10.35359 -10.35317 -10.35283 -10.35084
  Beta  occ. eigenvalues --  -10.34958 -10.33519 -10.33337 -10.32814 -10.32655
  Beta  occ. eigenvalues --  -10.32612 -10.32524 -10.32498 -10.32492 -10.32325
  Beta  occ. eigenvalues --  -10.32243 -10.32223 -10.32056 -10.32054 -10.31986
  Beta  occ. eigenvalues --  -10.31944 -10.31928 -10.31746 -10.31645 -10.31559
  Beta  occ. eigenvalues --  -10.30872 -10.30329 -10.30275 -10.30155 -10.29832
  Beta  occ. eigenvalues --  -10.29399 -10.29313  -8.13612  -6.07197  -6.06991
  Beta  occ. eigenvalues --   -6.06566  -3.56970  -2.34619  -2.30273  -2.30072
  Beta  occ. eigenvalues --   -1.24655  -1.24030  -1.17830  -1.10508  -1.09939
  Beta  occ. eigenvalues --   -1.09188  -1.08240  -1.08021  -1.07081  -1.03399
  Beta  occ. eigenvalues --   -0.95186  -0.94309  -0.92928  -0.92454  -0.92192
  Beta  occ. eigenvalues --   -0.91733  -0.91175  -0.91075  -0.90763  -0.88281
  Beta  occ. eigenvalues --   -0.87657  -0.87189  -0.86264  -0.85763  -0.84733
  Beta  occ. eigenvalues --   -0.83115  -0.82924  -0.81307  -0.80966  -0.80348
  Beta  occ. eigenvalues --   -0.78990  -0.78160  -0.77742  -0.77558  -0.76619
  Beta  occ. eigenvalues --   -0.76479  -0.76103  -0.75020  -0.73991  -0.73787
  Beta  occ. eigenvalues --   -0.71352  -0.71051  -0.70412  -0.69455  -0.69265
  Beta  occ. eigenvalues --   -0.67907  -0.66053  -0.64836  -0.63907  -0.63436
  Beta  occ. eigenvalues --   -0.62826  -0.62373  -0.61967  -0.61327  -0.59636
  Beta  occ. eigenvalues --   -0.59409  -0.59268  -0.59157  -0.58971  -0.58671
  Beta  occ. eigenvalues --   -0.58288  -0.58190  -0.57821  -0.57250  -0.56959
  Beta  occ. eigenvalues --   -0.56233  -0.56072  -0.55252  -0.55038  -0.54817
  Beta  occ. eigenvalues --   -0.54540  -0.54453  -0.54236  -0.54016  -0.53829
  Beta  occ. eigenvalues --   -0.53667  -0.53381  -0.53309  -0.52966  -0.52744
  Beta  occ. eigenvalues --   -0.52620  -0.52056  -0.51967  -0.51653  -0.51383
  Beta  occ. eigenvalues --   -0.51210  -0.51071  -0.50908  -0.50796  -0.50355
  Beta  occ. eigenvalues --   -0.50249  -0.50149  -0.49771  -0.49306  -0.49293
  Beta  occ. eigenvalues --   -0.49082  -0.48894  -0.48690  -0.48484  -0.48273
  Beta  occ. eigenvalues --   -0.48213  -0.47758  -0.47528  -0.47023  -0.46792
  Beta  occ. eigenvalues --   -0.46203  -0.45977  -0.45775  -0.45648  -0.45284
  Beta  occ. eigenvalues --   -0.45093  -0.44810  -0.44745  -0.44490  -0.44378
  Beta  occ. eigenvalues --   -0.43480  -0.43231  -0.43167  -0.42410  -0.41685
  Beta  occ. eigenvalues --   -0.41025  -0.40777  -0.40650  -0.39446  -0.38823
  Beta  occ. eigenvalues --   -0.38759  -0.37818  -0.37554  -0.35354  -0.35345
  Beta  occ. eigenvalues --   -0.34750  -0.34451  -0.33568  -0.33411  -0.32585
  Beta  occ. eigenvalues --   -0.30185  -0.29718
  Beta virt. eigenvalues --   -0.20017  -0.18451  -0.17112  -0.16652  -0.15272
  Beta virt. eigenvalues --   -0.14166  -0.12861  -0.10625  -0.10324  -0.09709
  Beta virt. eigenvalues --   -0.09281  -0.07923  -0.07658  -0.06990  -0.06219

 Mulliken charges and spin densities:
               1          2
     1  C   -0.367531  -0.000657
     2  C    0.177693  -0.000959
     3  N   -0.215265  -0.001372
     4  C   -0.210627   0.000305
     5  C    0.020181  -0.000982
     6  N    0.104995  -0.077085
     7  H    0.151633  -0.000016
     8  H    0.139586  -0.000093
     9  H    0.269480  -0.000072
    10  H    0.176398   0.000054
    11  H    0.198359  -0.000405
    12  C   -0.358291  -0.002122
    13  C   -0.191130   0.004852
    14  S    0.095936  -0.114962
    15  C   -0.410854   0.005417
    16  H    0.155424   0.000109
    17  H    0.149029  -0.000257
    18  H    0.158724  -0.001590
    19  H    0.153654  -0.003634
    20  H    0.183204  -0.005183
    21  H    0.161659  -0.001607
    22  H    0.177191   0.000001
    23  Fe  -0.151723   3.041129
    24  C   -0.437050  -0.020151
    25  C   -0.578575   0.054770
    26  C   -0.527940   0.003561
    27  C   -0.593236  -0.054374
    28  N   -0.058130   0.031692
    29  C    0.121336   0.021070
    30  C    0.023665  -0.005087
    31  C   -0.038551   0.018559
    32  C    0.322053  -0.026084
    33  C   -0.423962   0.000063
    34  C   -0.322865   0.000650
    35  C   -0.121487   0.000065
    36  C    0.280101   0.000050
    37  O   -0.350834   0.000001
    38  O   -0.332355  -0.000029
    39  N    0.022548   0.070654
    40  C    0.203989  -0.050061
    41  C   -0.030653   0.174731
    42  C   -0.068552  -0.140808
    43  C    0.287062   0.026552
    44  C   -0.396718  -0.007998
    45  C   -0.130257   0.910622
    46  C   -0.360866  -0.036713
    47  N   -0.042652   0.038866
    48  C    0.274278  -0.023869
    49  C   -0.050769   0.205162
    50  C   -0.081927  -0.164303
    51  C    0.308917   0.074849
    52  C   -0.384300  -0.005502
    53  C   -0.135293   0.899336
    54  C   -0.358266  -0.030714
    55  N   -0.104086  -0.005113
    56  C    0.277181   0.054135
    57  C   -0.032362  -0.006259
    58  C   -0.032166   0.025839
    59  C    0.252944   0.023230
    60  C   -0.396629   0.000708
    61  C   -0.294908  -0.001991
    62  C   -0.231294   0.000760
    63  C    0.285714   0.000027
    64  O   -0.272517  -0.000008
    65  O   -0.349101   0.000135
    66  H    0.157461   0.000548
    67  H    0.141319  -0.002971
    68  H    0.150253  -0.001033
    69  H    0.123923   0.002466
    70  H    0.158978   0.000438
    71  H    0.134761   0.000044
    72  H    0.159269   0.000340
    73  H    0.140756  -0.000227
    74  H    0.148562   0.000217
    75  H    0.114004   0.000015
    76  H    0.064609  -0.000002
    77  H    0.144670   0.005459
    78  H    0.160286   0.000883
    79  H    0.147342   0.006645
    80  H    0.092113  -0.022151
    81  H    0.132588   0.052149
    82  H    0.144065   0.004822
    83  H    0.129555   0.005038
    84  H    0.146151   0.004785
    85  H    0.146010  -0.000279
    86  H    0.145972   0.007680
    87  H    0.101085  -0.023352
    88  H    0.135503   0.051052
    89  H    0.144536   0.005169
    90  H    0.122078   0.003647
    91  H    0.139870  -0.000163
    92  H    0.131221   0.000096
    93  H    0.158850  -0.000170
    94  H    0.138534   0.001176
    95  H    0.097262   0.000251
    96  H    0.144846  -0.000074
    97  H    0.130249   0.000068
    98  H    0.124484  -0.000499
    99  H    0.157388   0.000002
   100  H    0.363616   0.000005
   101  H    0.338618   0.000027
 Sum of Mulliken charges =   1.00000   5.00000

 Dipole moment (field-independent basis, Debye):
    X=              3.1311    Y=              0.2820    Z=              5.0869  Tot=              5.9799
 Quadrupole moment (field-independent basis, Debye-Ang):
   XX=           -249.3146   YY=           -285.2320   ZZ=           -284.7010
   XY=             -8.6390   XZ=            -32.5041   YZ=             15.1849

 Summary of Natural Population Analysis:

                                       Natural Population
                Natural  -----------------------------------------------
    Atom  No    Charge         Core      Valence    Rydberg      Total
 -----------------------------------------------------------------------
      C    1   -0.31999      0.99969     2.31453    0.00578     3.31999
      C    2    0.06114      0.99953     1.93047    0.00886     2.93886
      N    3   -0.23710      0.99967     2.72759    0.00984     3.73710
      C    4   -0.03284      0.99941     2.02401    0.00942     3.03284
      C    5    0.10788      0.99963     1.88155    0.01094     2.89212
      N    6   -0.21525      0.99966     2.68348    0.03211     3.71525
      H    7    0.12044      0.00000     0.37919    0.00037     0.37956
      H    8    0.11376      0.00000     0.38571    0.00053     0.38624
      H    9    0.21944      0.00000     0.27981    0.00076     0.28056
      H   10    0.12439      0.00000     0.37480    0.00081     0.37561
      H   11    0.11924      0.00000     0.37958    0.00118     0.38076
      C   12   -0.30920      0.99972     2.30334    0.00613     3.30920
      C   13   -0.27195      0.99967     2.26255    0.00973     3.27195
      S   14    0.27385      4.99926     2.70469    0.02221     7.72615
      C   15   -0.37520      0.99967     2.36677    0.00876     3.37520
      H   16    0.11301      0.00000     0.38610    0.00090     0.38699
      H   17    0.11234      0.00000     0.38717    0.00049     0.38766
      H   18    0.12086      0.00000     0.37846    0.00069     0.37914
      H   19    0.11961      0.00000     0.37942    0.00097     0.38039
      H   20    0.12019      0.00000     0.37926    0.00055     0.37981
      H   21    0.11514      0.00000     0.38401    0.00085     0.38486
      H   22    0.12642      0.00000     0.37306    0.00052     0.37358
     Fe   23    1.64775      8.99571     2.32177    0.03477    11.35225
      C   24   -0.12451      0.99949     2.11697    0.00805     3.12451
      C   25   -0.08740      0.99951     2.08052    0.00737     3.08740
      C   26   -0.11367      0.99947     2.10630    0.00790     3.11367
      C   27   -0.13591      0.99947     2.12820    0.00823     3.13591
      N   28   -0.20629      0.99970     2.68451    0.02208     3.70629
      C   29    0.08053      0.99951     1.91028    0.00968     2.91947
      C   30   -0.01295      0.99946     2.00450    0.00899     3.01295
      C   31    0.00456      0.99947     1.98799    0.00798     2.99544
      C   32    0.06683      0.99952     1.92259    0.01106     2.93317
      C   33   -0.32425      0.99970     2.32064    0.00390     3.32425
      C   34   -0.21614      0.99966     2.20967    0.00681     3.21614
      C   35   -0.25004      0.99964     2.24218    0.00822     3.25004
      C   36    0.38529      0.99975     1.59688    0.01808     2.61471
      O   37   -0.34239      0.99979     3.32793    0.01467     4.34239
      O   38   -0.27898      0.99989     3.26725    0.01184     4.27898
      N   39   -0.18042      0.99967     2.65925    0.02151     3.68042
      C   40    0.05571      0.99952     1.93387    0.01091     2.94429
      C   41    0.07856      0.99948     1.91380    0.00816     2.92144
      C   42   -0.09961      0.99942     2.09104    0.00916     3.09961
      C   43    0.09422      0.99949     1.89668    0.00962     2.90578
      C   44   -0.32899      0.99971     2.32298    0.00630     3.32899
      C   45    0.40145      0.99928     1.59190    0.00737     2.59855
      C   46   -0.34846      0.99972     2.34573    0.00302     3.34846
      N   47   -0.19059      0.99969     2.66689    0.02401     3.69059
      C   48    0.06207      0.99949     1.92853    0.00991     2.93793
      C   49    0.09509      0.99946     1.89720    0.00824     2.90491
      C   50   -0.11267      0.99942     2.10383    0.00942     3.11267
      C   51    0.11802      0.99949     1.87183    0.01065     2.88198
      C   52   -0.32923      0.99971     2.32339    0.00613     3.32923
      C   53    0.41121      0.99926     1.58206    0.00748     2.58879
      C   54   -0.34772      0.99971     2.34500    0.00301     3.34772
      N   55   -0.21543      0.99970     2.69330    0.02243     3.71543
      C   56    0.10199      0.99950     1.88732    0.01119     2.89801
      C   57   -0.00802      0.99946     2.00032    0.00824     3.00802
      C   58   -0.00021      0.99945     1.99099    0.00977     3.00021
      C   59    0.08323      0.99951     1.90750    0.00976     2.91677
      C   60   -0.32171      0.99970     2.31820    0.00381     3.32171
      C   61   -0.22106      0.99967     2.21405    0.00734     3.22106
      C   62   -0.26242      0.99965     2.25408    0.00870     3.26242
      C   63    0.37891      0.99974     1.60403    0.01731     2.62109
      O   64   -0.30994      0.99981     3.29464    0.01550     4.30994
      O   65   -0.28616      0.99989     3.27395    0.01232     4.28616
      H   66    0.11675      0.00000     0.38151    0.00174     0.38325
      H   67    0.11822      0.00000     0.38056    0.00122     0.38178
      H   68    0.11890      0.00000     0.37960    0.00150     0.38110
      H   69    0.11698      0.00000     0.38169    0.00133     0.38302
      H   70    0.11764      0.00000     0.38165    0.00071     0.38236
      H   71    0.11138      0.00000     0.38811    0.00051     0.38862
      H   72    0.11813      0.00000     0.38113    0.00074     0.38187
      H   73    0.11470      0.00000     0.38443    0.00087     0.38530
      H   74    0.11891      0.00000     0.38032    0.00077     0.38109
      H   75    0.11696      0.00000     0.38235    0.00069     0.38304
      H   76    0.10224      0.00000     0.39707    0.00069     0.39776
      H   77    0.11712      0.00000     0.38229    0.00059     0.38288
      H   78    0.11875      0.00000     0.38069    0.00056     0.38125
      H   79    0.11833      0.00000     0.38107    0.00061     0.38167
      H   80    0.07371      0.00000     0.42549    0.00080     0.42629
      H   81    0.13476      0.00000     0.36474    0.00050     0.36524
      H   82    0.11482      0.00000     0.38458    0.00060     0.38518
      H   83    0.10955      0.00000     0.38976    0.00069     0.39045
      H   84    0.11703      0.00000     0.38241    0.00056     0.38297
      H   85    0.11836      0.00000     0.38101    0.00063     0.38164
      H   86    0.11868      0.00000     0.38069    0.00063     0.38132
      H   87    0.07377      0.00000     0.42538    0.00085     0.42623
      H   88    0.13485      0.00000     0.36466    0.00049     0.36515
      H   89    0.11445      0.00000     0.38491    0.00064     0.38555
      H   90    0.10817      0.00000     0.39108    0.00075     0.39183
      H   91    0.11292      0.00000     0.38645    0.00063     0.38708
      H   92    0.11220      0.00000     0.38704    0.00076     0.38780
      H   93    0.11588      0.00000     0.38335    0.00077     0.38412
      H   94    0.11374      0.00000     0.38543    0.00083     0.38626
      H   95    0.10223      0.00000     0.39670    0.00107     0.39777
      H   96    0.12527      0.00000     0.37400    0.00073     0.37473
      H   97    0.11704      0.00000     0.38234    0.00061     0.38296
      H   98    0.11268      0.00000     0.38680    0.00052     0.38732
      H   99    0.11705      0.00000     0.38242    0.00053     0.38295
      H  100    0.26202      0.00000     0.23686    0.00112     0.23798
      H  101    0.24942      0.00000     0.24965    0.00093     0.25058
 =======================================================================
   * Total *    3.00000     64.97425   136.39432    0.63143   202.00000

 Normal termination of Gaussian 16 at Sun Feb 12 18:48:41 2023.
