 Gaussian 16, Revision A.03,

 ----------------------------------------------------------------------
 # PBE1PBE/def2TZVP empiricaldispersion=GD3BJ int=(grid=ultrafine) geom
 =check pop=nbo
 ----------------------------------------------------------------------

 ---------
 6k9j_II_Q
 ---------
 Structure from the checkpoint file:  "6k9j_II_Q.chk"
 Charge =  0 Multiplicity = 5

 SCF Done:  E(UPBE1PBE) =  -3880.35379697     A.U. after  105 cycles

 Summary of Natural Population Analysis:

                                       Natural Population
                Natural  -----------------------------------------------
    Atom  No    Charge         Core      Valence    Rydberg      Total
 -----------------------------------------------------------------------
      C    1   -0.31751      0.99970     2.31468    0.00313     3.31751
      C    2    0.04643      0.99953     1.94452    0.00952     2.95357
      N    3   -0.23979      0.99967     2.72992    0.01020     3.73979
      C    4   -0.03757      0.99943     2.02848    0.00967     3.03757
      C    5    0.09028      0.99967     1.89855    0.01151     2.90972
      N    6   -0.16312      0.99970     2.63337    0.03005     3.66312
      C    7   -0.30735      0.99973     2.30361    0.00401     3.30735
      C    8   -0.27502      0.99969     2.26557    0.00976     3.27502
      S    9    0.29360      4.99918     2.68379    0.02343     7.70640
      C   10   -0.38453      0.99966     2.37539    0.00949     3.38453
     Fe   11    1.03210      8.99484     2.94536    0.02770    11.96790
      C   12   -0.13548      0.99947     2.12756    0.00845     3.13548
      C   13   -0.11057      0.99949     2.10216    0.00892     3.11057
      C   14   -0.11155      0.99948     2.10382    0.00825     3.11155
      C   15   -0.12688      0.99947     2.11924    0.00818     3.12688
      N   16   -0.19629      0.99971     2.67341    0.02317     3.69629
      C   17    0.07131      0.99951     1.91840    0.01078     2.92869
      C   18   -0.02154      0.99943     2.01254    0.00957     3.02154
      C   19   -0.01503      0.99943     2.00696    0.00864     3.01503
      C   20    0.06604      0.99950     1.92390    0.01056     2.93396
      C   21   -0.31962      0.99970     2.31620    0.00372     3.31962
      C   22   -0.20907      0.99967     2.20111    0.00829     3.20907
      C   23   -0.25887      0.99964     2.25058    0.00865     3.25887
      C   24    0.38218      0.99974     1.60143    0.01665     2.61782
      O   25   -0.32660      0.99980     3.31160    0.01521     4.32660
      O   26   -0.28915      0.99991     3.27856    0.01069     4.28915
      N   27   -0.16187      0.99968     2.64081    0.02138     3.66187
      C   28    0.05500      0.99948     1.93344    0.01208     2.94500
      C   29    0.06651      0.99919     1.92279    0.01151     2.93349
      C   30   -0.12807      0.99941     2.11852    0.01015     3.12807
      C   31    0.08738      0.99953     1.90277    0.01032     2.91262
      C   32   -0.61582      0.99954     2.58459    0.03169     3.61582
      C   33    0.38876      0.99969     1.60421    0.00735     2.61124
      C   34   -0.35717      0.99971     2.35084    0.00661     3.35717
      N   35   -0.17673      0.99968     2.65559    0.02147     3.67673
      C   36    0.04348      0.99950     1.94629    0.01072     2.95652
      C   37    0.06800      0.99942     1.92403    0.00855     2.93200
      C   38   -0.12215      0.99945     2.11315    0.00955     3.12215
      C   39    0.08895      0.99950     1.90110    0.01045     2.91105
      C   40   -0.31866      0.99969     2.31531    0.00365     3.31866
      C   41    0.38121      0.99971     1.61406    0.00502     2.61879
      C   42   -0.35346      0.99972     2.35023    0.00352     3.35346
      N   43   -0.18447      0.99973     2.66354    0.02120     3.68447
      C   44    0.07602      0.99951     1.91365    0.01082     2.92398
      C   45   -0.02116      0.99939     2.01295    0.00882     3.02116
      C   46   -0.01588      0.99942     2.00718    0.00928     3.01588
      C   47    0.07313      0.99953     1.91688    0.01047     2.92687
      C   48   -0.31789      0.99970     2.31437    0.00383     3.31789
      C   49   -0.21049      0.99967     2.20320    0.00762     3.21049
      C   50   -0.25564      0.99963     2.24756    0.00845     3.25564
      C   51    0.38342      0.99973     1.59983    0.01702     2.61658
      O   52   -0.27531      0.99989     3.26322    0.01220     4.27531
      O   53   -0.34591      0.99983     3.33228    0.01380     4.34591
      H   54    0.10666      0.00000     0.39272    0.00062     0.39334
      H   55    0.11699      0.00000     0.38245    0.00056     0.38301
      H   56    0.11282      0.00000     0.38651    0.00067     0.38718
      H   57    0.11231      0.00000     0.38696    0.00073     0.38769
      H   58    0.11103      0.00000     0.38802    0.00095     0.38897
      H   59    0.10302      0.00000     0.39630    0.00068     0.39698
      H   60    0.10836      0.00000     0.39072    0.00092     0.39164
      H   61    0.10938      0.00000     0.38918    0.00143     0.39062
      H   62    0.11986      0.00000     0.37883    0.00131     0.38014
      H   63    0.11125      0.00000     0.38790    0.00085     0.38875
      H   64    0.12447      0.00000     0.37496    0.00057     0.37553
      H   65    0.10788      0.00000     0.39149    0.00063     0.39212
      H   66    0.11318      0.00000     0.38603    0.00079     0.38682
      H   67    0.10423      0.00000     0.39441    0.00136     0.39577
      H   68    0.11651      0.00000     0.38197    0.00151     0.38349
      H   69    0.10941      0.00000     0.38935    0.00124     0.39059
      H   70    0.10835      0.00000     0.39026    0.00139     0.39165
      H   71    0.11151      0.00000     0.38775    0.00074     0.38849
      H   72    0.10625      0.00000     0.39304    0.00072     0.39375
      H   73    0.11239      0.00000     0.38677    0.00084     0.38761
      H   74    0.11684      0.00000     0.38228    0.00087     0.38316
      H   75    0.11194      0.00000     0.38716    0.00090     0.38806
      H   76    0.11574      0.00000     0.38338    0.00087     0.38426
      H   77    0.11038      0.00000     0.38862    0.00100     0.38962
      H   78    0.21492      0.00000     0.28374    0.00134     0.28508
      H   79    0.20807      0.00000     0.29072    0.00121     0.29193
      H   80    0.19246      0.00000     0.30671    0.00084     0.30754
      H   81    0.11856      0.00000     0.38088    0.00055     0.38144
      H   82    0.11039      0.00000     0.38877    0.00085     0.38961
      H   83    0.13846      0.00000     0.36106    0.00049     0.36154
      H   84    0.11464      0.00000     0.38461    0.00076     0.38536
      H   85    0.10744      0.00000     0.39197    0.00060     0.39256
      H   86    0.10911      0.00000     0.39010    0.00079     0.39089
      H   87    0.11480      0.00000     0.38454    0.00066     0.38520
      H   88    0.10898      0.00000     0.39027    0.00074     0.39102
      H   89    0.13337      0.00000     0.36611    0.00051     0.36663
      H   90    0.11136      0.00000     0.38786    0.00078     0.38864
      H   91    0.10910      0.00000     0.39030    0.00060     0.39090
      H   92    0.10678      0.00000     0.39235    0.00088     0.39322
      H   93    0.11620      0.00000     0.38259    0.00121     0.38380
      H   94    0.10938      0.00000     0.38975    0.00087     0.39062
      H   95    0.11251      0.00000     0.38656    0.00093     0.38749
      H   96    0.11867      0.00000     0.38041    0.00092     0.38133
      H   97    0.20776      0.00000     0.29143    0.00081     0.29224
      H   98    0.25386      0.00000     0.24502    0.00112     0.24614
      H   99    0.25281      0.00000     0.24604    0.00115     0.24719
      H  100    0.08081      0.00000     0.41833    0.00086     0.41919
      H  101    0.08123      0.00000     0.41789    0.00088     0.41877
 =======================================================================
   * Total *    2.00000     64.97366   137.36816    0.65818   203.00000

 Normal termination of Gaussian 16 at Sat Feb  4 18:24:39 2023.
 Gaussian 16:  ES64L-G16RevA.03 25-Dec-2016

 ----------------------------------------------------------------------
 # PBE1PBE/def2TZVP empiricaldispersion=GD3BJ int=(grid=ultrafine) geom
 =check guess=read scrf=(smd,solvent=Chloroform)
 ----------------------------------------------------------------------

 --------------
 6k9j_II_Q_solv
 --------------
 Structure from the checkpoint file:  "6k9j_II_Q.chk"
 Charge =  0 Multiplicity = 5

                         Standard orientation:
 ---------------------------------------------------------------------
 Center     Atomic      Atomic             Coordinates (Angstroms)
 Number     Number       Type             X           Y           Z
 ---------------------------------------------------------------------
      1          6           0        2.618348   -1.740274    4.948203
      2          6           0        1.782700   -1.236437    3.803960
      3          7           0        0.422835   -1.210439    3.837733
      4          6           0        2.116597   -0.819644    2.563162
      5          6           0       -0.011310   -0.767685    2.661519
      6          7           0        0.999592   -0.502631    1.831755
      7          6           0       -0.879830    2.803911   -2.632089
      8          6           0        0.509754    2.133586   -2.657231
      9         16           0        0.428710    0.374790   -2.287713
     10          6           0        1.756754   -0.261194   -3.256822
     11         26           0        0.868325   -0.048439   -0.085968
     12          6           0       -2.633473   -0.182732   -0.059356
     13          6           0        0.938575   -3.405888   -0.542159
     14          6           0        4.178584    0.161681   -0.487804
     15          6           0        0.705949    3.200550    0.891317
     16          7           0       -0.548895   -1.485201   -0.273287
     17          6           0       -1.927791   -1.350831   -0.337431
     18          6           0       -2.550497   -2.626175   -0.620549
     19          6           0       -1.552173   -3.539263   -0.719770
     20          6           0       -0.307421   -2.838321   -0.498457
     21          6           0       -1.652639   -5.021194   -1.027856
     22          6           0       -4.030329   -2.874243   -0.698074
     23          6           0       -4.574498   -3.234339    0.695980
     24          6           0       -6.038536   -3.654562    0.744193
     25          8           0       -6.486940   -3.937627    1.881949
     26          8           0       -6.709928   -3.729412   -0.346696
     27          7           0        2.302503   -1.409597   -0.457571
     28          6           0        2.160980   -2.731682   -0.505618
     29          6           0        3.444445   -3.323799   -0.675108
     30          6           0        4.366737   -2.342430   -0.751612
     31          6           0        3.611878   -1.092471   -0.564430
     32          6           0        3.643458   -4.839533   -0.669043
     33          6           0        5.802704   -2.411742   -1.077618
     34          6           0        6.118050   -2.973822   -2.385776
     35          7           0        2.146880    1.415845    0.093574
     36          6           0        3.506301    1.327214   -0.112776
     37          6           0        4.157087    2.564602    0.185470
     38          6           0        3.192572    3.425415    0.640747
     39          6           0        1.937173    2.692324    0.575747
     40          6           0        5.653331    2.822965    0.158287
     41          6           0        3.351691    4.768574    1.292750
     42          6           0        4.165830    5.785398    0.556992
     43          7           0       -0.655153    1.209850    0.375870
     44          6           0       -0.518119    2.557817    0.745726
     45          6           0       -1.807961    3.166738    0.930214
     46          6           0       -2.752437    2.236650    0.666053
     47          6           0       -2.024014    1.015600    0.286553
     48          6           0       -2.023560    4.630558    1.296914
     49          6           0       -4.247347    2.439800    0.608473
     50          6           0       -4.593006    3.009123   -0.766090
     51          6           0       -6.001717    3.475858   -0.976223
     52          8           0       -6.846742    3.493727   -0.072774
     53          8           0       -6.284431    3.896517   -2.173183
     54          1           0        1.996574   -2.274728    5.635703
     55          1           0        3.379228   -2.392865    4.573922
     56          1           0        3.073827   -0.911721    5.449141
     57          1           0        3.119912   -0.746339    2.198628
     58          1           0       -1.043732   -0.639729    2.411255
     59          1           0       -1.063663    3.279127   -3.572980
     60          1           0       -0.909025    3.535123   -1.851463
     61          1           0       -1.630404    2.062316   -2.454390
     62          1           0        1.069744    2.579376   -1.861880
     63          1           0        0.858972    2.210102   -3.665741
     64          1           0        2.120679   -1.164696   -2.813941
     65          1           0        1.409308   -0.464692   -4.248169
     66          1           0        2.546399    0.459762   -3.296605
     67          1           0       -3.701651   -0.210441   -0.115289
     68          1           0        0.979282   -4.472880   -0.611226
     69          1           0        5.215877    0.249378   -0.735258
     70          1           0        0.683388    4.193052    1.290481
     71          1           0       -1.052347   -5.571306   -0.333648
     72          1           0       -2.672299   -5.334553   -0.944196
     73          1           0       -1.304137   -5.203021   -2.023037
     74          1           0       -4.165118   -3.739163   -1.313415
     75          1           0       -4.483607   -1.945203   -0.974341
     76          1           0       -4.518618   -2.330444    1.265849
     77          1           0       -4.020398   -4.096236    1.004210
     78          1           0        4.555030   -4.536530   -0.197741
     79          1           0        3.283067   -4.709420   -1.668087
     80          1           0        4.333932   -5.467304   -1.192540
     81          1           0        6.973135   -3.611714   -2.303167
     82          1           0        5.283071   -3.540833   -2.741032
     83          1           0        6.329324   -2.181332   -3.072961
     84          1           0        6.042544    2.770102    1.153586
     85          1           0        6.131662    2.085136   -0.451390
     86          1           0        5.840013    3.795698   -0.246486
     87          1           0        4.757139    6.341278    1.254309
     88          1           0        4.808540    5.290598   -0.140860
     89          1           0        3.514107    6.451577    0.031291
     90          1           0       -2.556049    4.691559    2.223000
     91          1           0       -1.075537    5.116304    1.397928
     92          1           0       -2.590428    5.111306    0.527212
     93          1           0       -4.490750    3.191103    1.330413
     94          1           0       -4.698983    1.471782    0.670660
     95          1           0       -4.464591    2.193439   -1.446582
     96          1           0       -3.990137    3.887662   -0.864170
     97          1           0       -0.150374   -1.477773    4.612306
     98          1           0       -5.976270   -4.494380    2.474268
     99          1           0       -6.253566    3.288467   -2.915424
    100          1           0        2.903745    4.988200    2.239328
    101          1           0        6.560301   -2.073447   -0.401967
 ---------------------------------------------------------------------

 SCF Done:  E(UPBE1PBE) =  -3880.42663538     A.U. after   47 cycles

 Alpha virt. eigenvalues --    1.04252   1.04668   1.04906   1.05222   1.05410
 Alpha virt. eigenvalues --    1.05623   1.05824   1.06381   1.06554   1.06815
 Alpha virt. eigenvalues --    1.07043   1.07341   1.07509   1.08001   1.08278

  Beta  occ. eigenvalues -- -256.31024 -89.01018 -30.05765 -25.90307 -25.88435
  Beta  occ. eigenvalues --  -25.87257 -19.26337 -19.24310 -19.18963 -19.18542
  Beta  occ. eigenvalues --  -14.43392 -14.38122 -14.37438 -14.36968 -14.35643
  Beta  occ. eigenvalues --  -14.35498 -10.35954 -10.35361 -10.26760 -10.25224
  Beta  occ. eigenvalues --  -10.24728 -10.24370 -10.24308 -10.24160 -10.24154
  Beta  occ. eigenvalues --  -10.24093 -10.24015 -10.23969 -10.23952 -10.22792
  Beta  occ. eigenvalues --  -10.22531 -10.22264 -10.22172 -10.22072 -10.21880
  Beta  occ. eigenvalues --  -10.21848 -10.21719 -10.21640 -10.21618 -10.21605
  Beta  occ. eigenvalues --  -10.21565 -10.21558 -10.21553 -10.21405 -10.21390
  Beta  occ. eigenvalues --  -10.21349 -10.21318 -10.21264 -10.21100 -10.20934
  Beta  occ. eigenvalues --  -10.20429 -10.20387 -10.20364 -10.20136 -10.20046
  Beta  occ. eigenvalues --  -10.19416 -10.18268  -7.98986  -5.92629  -5.92325
  Beta  occ. eigenvalues --   -5.91820  -3.38219  -2.16251  -2.13747  -2.09970
  Beta  occ. eigenvalues --   -1.16460  -1.13997  -1.05413  -1.03526  -1.01769
  Beta  occ. eigenvalues --   -0.98543  -0.96913  -0.96236  -0.94857  -0.90367
  Beta  occ. eigenvalues --   -0.84599  -0.83717  -0.83385  -0.83326  -0.82863
  Beta  occ. eigenvalues --   -0.81407  -0.80818  -0.80451  -0.79787  -0.78762
  Beta  occ. eigenvalues --   -0.78068  -0.77712  -0.76124  -0.75930  -0.75042
  Beta  occ. eigenvalues --   -0.73720  -0.72903  -0.72190  -0.71542  -0.71233
  Beta  occ. eigenvalues --   -0.69470  -0.69236  -0.68385  -0.66398  -0.66062
  Beta  occ. eigenvalues --   -0.65658  -0.64733  -0.63971  -0.63856  -0.61944
  Beta  occ. eigenvalues --   -0.61168  -0.61015  -0.59323  -0.58918  -0.57360
  Beta  occ. eigenvalues --   -0.55453  -0.55034  -0.54562  -0.54135  -0.53488
  Beta  occ. eigenvalues --   -0.52751  -0.52384  -0.52131  -0.51824  -0.51138
  Beta  occ. eigenvalues --   -0.50711  -0.50328  -0.49670  -0.49156  -0.48589
  Beta  occ. eigenvalues --   -0.48217  -0.47760  -0.47593  -0.47578  -0.47063
  Beta  occ. eigenvalues --   -0.46744  -0.46543  -0.45437  -0.45290  -0.45199
  Beta  occ. eigenvalues --   -0.44595  -0.44229  -0.44073  -0.43865  -0.43637
  Beta  occ. eigenvalues --   -0.43537  -0.43294  -0.43223  -0.42684  -0.42620
  Beta  occ. eigenvalues --   -0.42461  -0.42309  -0.41938  -0.41840  -0.41692
  Beta  occ. eigenvalues --   -0.41551  -0.41155  -0.41014  -0.40634  -0.40402
  Beta  occ. eigenvalues --   -0.40137  -0.40008  -0.39274  -0.39199  -0.38978
  Beta  occ. eigenvalues --   -0.38881  -0.38789  -0.38542  -0.38368  -0.38207
  Beta  occ. eigenvalues --   -0.37747  -0.37239  -0.37094  -0.36781  -0.36704
  Beta  occ. eigenvalues --   -0.36489  -0.36148  -0.35873  -0.35717  -0.35463
  Beta  occ. eigenvalues --   -0.34989  -0.34689  -0.34498  -0.34174  -0.33673
  Beta  occ. eigenvalues --   -0.33050  -0.32790  -0.32657  -0.32168  -0.31851
  Beta  occ. eigenvalues --   -0.31230  -0.30255  -0.29436  -0.28554  -0.28233
  Beta  occ. eigenvalues --   -0.27970  -0.27813  -0.26020  -0.25529  -0.24052
  Beta  occ. eigenvalues --   -0.23901  -0.23693  -0.22532  -0.20799  -0.18775
  Beta  occ. eigenvalues --   -0.18520  -0.17188  -0.15956
  Beta virt. eigenvalues --   -0.07252  -0.07020  -0.04598  -0.03594  -0.00485
  Beta virt. eigenvalues --   -0.00233  -0.00141   0.00464   0.01173   0.02989
  Beta virt. eigenvalues --    0.03268   0.03748   0.04035   0.04905   0.04935

 Mulliken charges and spin densities:
               1          2
     1  C   -0.395206   0.000429
     2  C    0.134154   0.002532
     3  N   -0.203476  -0.000166
     4  C   -0.245949  -0.001632
     5  C   -0.029349  -0.008349
     6  N    0.062755   0.001811
     7  C   -0.412891  -0.000442
     8  C   -0.121173  -0.002628
     9  S   -0.011227   0.007010
    10  C   -0.393159   0.000705
    11  Fe  -0.361311   2.090796
    12  C   -0.585209  -0.016263
    13  C   -0.565670   0.013430
    14  C   -0.568548   0.040985
    15  C   -0.519078  -0.012117
    16  N   -0.002894  -0.026514
    17  C    0.272250  -0.001185
    18  C    0.047273  -0.003311
    19  C   -0.114059  -0.002945
    20  C    0.283253  -0.011705
    21  C   -0.438105   0.000205
    22  C   -0.326229   0.000575
    23  C   -0.253576  -0.000293
    24  C    0.316510   0.000078
    25  O   -0.330481  -0.000007
    26  O   -0.431296  -0.000005
    27  N   -0.074008   0.077136
    28  C    0.258320  -0.025564
    29  C   -0.059120   0.098086
    30  C   -0.034466  -0.130862
    31  C    0.162660  -0.005201
    32  C   -0.793471   0.002877
    33  C   -0.299997   0.983982
    34  C   -0.337614  -0.063817
    35  N    0.039543   0.007549
    36  C    0.300892  -0.061004
    37  C   -0.090661   0.182282
    38  C   -0.036432  -0.187141
    39  C    0.170157   0.017224
    40  C   -0.383931  -0.010020
    41  C   -0.256573   0.951283
    42  C   -0.331529  -0.064462
    43  N    0.000191   0.039320
    44  C    0.288483   0.011247
    45  C   -0.134057  -0.002721
    46  C    0.033684   0.006536
    47  C    0.163846   0.004939
    48  C   -0.426549   0.000707
    49  C   -0.209094   0.001127
    50  C   -0.259330  -0.000067
    51  C    0.321755   0.000052
    52  O   -0.375626  -0.000005
    53  O   -0.394078   0.000012
    54  H    0.142517  -0.000026
    55  H    0.159836  -0.000009
    56  H    0.155183   0.000013
    57  H    0.161837   0.000705
    58  H    0.190072   0.001104
    59  H    0.139688   0.000054
    60  H    0.130442   0.000360
    61  H    0.133689  -0.000043
    62  H    0.127502   0.001246
    63  H    0.147562  -0.000368
    64  H    0.162209   0.000742
    65  H    0.161517  -0.001124
    66  H    0.153446   0.000141
    67  H    0.134561   0.000631
    68  H    0.158858  -0.000302
    69  H    0.143750  -0.000090
    70  H    0.129607   0.004471
    71  H    0.156608  -0.000216
    72  H    0.141082  -0.000022
    73  H    0.155168  -0.000307
    74  H    0.133826  -0.000147
    75  H    0.126605  -0.000144
    76  H    0.151202   0.000083
    77  H    0.156050  -0.000028
    78  H    0.268454   0.015446
    79  H    0.272376  -0.001586
    80  H    0.282485   0.005158
    81  H    0.132936   0.021325
    82  H    0.130953   0.006352
    83  H    0.146010   0.054054
    84  H    0.151237   0.008479
    85  H    0.141967   0.000711
    86  H    0.133319   0.003834
    87  H    0.132358   0.015746
    88  H    0.123028   0.006915
    89  H    0.142508   0.046233
    90  H    0.154884   0.000171
    91  H    0.138476   0.000158
    92  H    0.140559   0.000106
    93  H    0.119428   0.000237
    94  H    0.121634  -0.000103
    95  H    0.149955   0.000081
    96  H    0.148881   0.000011
    97  H    0.273521   0.000964
    98  H    0.390689  -0.000003
    99  H    0.381948  -0.000000
   100  H    0.159033  -0.046363
   101  H    0.160234  -0.049137
 Sum of Mulliken charges =  -0.00000   4.00000

 Dipole moment (field-independent basis, Debye):
    X=              9.0830    Y=             -1.7144    Z=              3.0464  Tot=              9.7324
 Quadrupole moment (field-independent basis, Debye-Ang):
   XX=           -373.2838   YY=           -319.5451   ZZ=           -273.9702
   XY=              9.3955   XZ=            -13.3796   YZ=            -22.4597

 Normal termination of Gaussian 16 at Sun Feb  5 19:55:29 2023.
