 Gaussian 16, Revision A.03,
 Gaussian 16:  ES64L-G16RevA.03 25-Dec-2016

 ----------------------------------------------------------------------
 # PBE1PBE/def2TZVP guess=read scf=qc empiricaldispersion=GD3BJ scf=max
 cycle=999 geom=check pop=nbo
 ----------------------------------------------------------------------

 ---------
 1nsi_II_Q
 ---------
 Structure from the checkpoint file:  "1nsi_II_Q.chk"
 Charge =  0 Multiplicity = 5

                         Standard orientation:
 ---------------------------------------------------------------------
 Center     Atomic      Atomic             Coordinates (Angstroms)
 Number     Number       Type             X           Y           Z
 ---------------------------------------------------------------------
      1          6           0        0.482793    0.900315    3.602364
      2         16           0        1.453364   -0.179138    2.552631
      3          6           0       -2.286643   -0.070617    0.721968
      4          6           0        1.114024   -3.446392    0.402323
      5          6           0        4.145897   -0.099652   -1.042394
      6          6           0        1.008312    3.318595    0.221160
      7          6           0       -1.649705   -1.272704    0.627219
      8          6           0       -2.357679   -2.525856    0.569728
      9          6           0       -1.395731   -3.488733    0.607133
     10          6           0       -0.107914   -2.810871    0.587063
     11          6           0       -1.630996   -4.998196    0.667829
     12          6           0       -3.846021   -2.747069    0.310651
     13          6           0       -4.324452   -2.284257   -1.070039
     14          6           0       -5.716677   -2.798965   -1.424469
     15          8           0       -6.230844   -3.673127   -0.696361
     16          8           0       -6.295988   -2.335664   -2.432468
     17          6           0        2.313421   -2.821186    0.100693
     18          6           0        3.533980   -3.501969   -0.313198
     19          6           0        4.370816   -2.553825   -0.748418
     20          6           0        3.675950   -1.291885   -0.605551
     21          6           0        3.847644   -4.975579   -0.232980
     22          6           0        5.609250   -2.790811   -1.275369
     23          6           0        6.756966   -2.350939   -0.705118
     24          6           0        3.518488    1.110306   -0.861828
     25          6           0        4.124278    2.383378   -1.211913
     26          6           0        3.256838    3.345159   -0.803906
     27          6           0        2.137205    2.657317   -0.210701
     28          6           0        5.489191    2.554719   -1.849032
     29          6           0        3.314811    4.724424   -0.886558
     30          6           0        4.511535    5.345286   -1.024218
     31          6           0       -0.148089    2.687440    0.585216
     32          6           0       -1.424106    3.365964    0.717924
     33          6           0       -2.349624    2.407951    0.693386
     34          6           0       -1.659275    1.139075    0.665085
     35          6           0       -1.692418    4.841866    0.936089
     36          6           0       -3.831104    2.638570    0.581210
     37          6           0       -4.393340    2.381011   -0.812257
     38          6           0       -5.895274    2.559035   -0.869957
     39          8           0       -6.456653    3.115721    0.091491
     40          8           0       -6.521448    2.140493   -1.866221
     41          7           0       -0.275502   -1.448508    0.589689
     42          7           0        2.433301   -1.448847   -0.036151
     43          7           0        2.305392    1.274170   -0.230379
     44          7           0       -0.283645    1.300242    0.593228
     45         26           0        1.133022   -0.075088    0.368487
     46          1           0       -0.558351    0.726770    3.426860
     47          1           0        0.709992    0.698764    4.628355
     48          1           0        0.717022    1.920163    3.378874
     49          1           0        2.329011   -1.007490    3.065639
     50          1           0       -7.322996    3.513134   -0.023019
     51          1           0       -3.937433    3.061554   -1.500668
     52          1           0       -4.152010    1.380031   -1.103289
     53          1           0       -4.329444    1.993063    1.273943
     54          1           0       -4.038897    3.653237    0.849858
     55          1           0       -7.181609   -1.973756   -2.353111
     56          1           0       -4.338861   -1.214502   -1.087830
     57          1           0       -3.631684   -2.631511   -1.807865
     58          1           0       -4.055042   -3.791869    0.408644
     59          1           0       -4.401729   -2.217924    1.056369
     60          1           0       -3.349012   -0.076871    0.849384
     61          1           0       -2.488086   -5.249558    0.078664
     62          1           0       -0.772388   -5.508698    0.284320
     63          1           0       -1.797167   -5.292734    1.682981
     64          1           0       -2.702980    4.976453    1.260975
     65          1           0       -1.024668    5.219312    1.682108
     66          1           0       -1.538999    5.371619    0.019179
     67          1           0        1.038583    4.386832    0.274585
     68          1           0        1.130220   -4.511647    0.501664
     69          1           0        3.136502   -5.523799   -0.814901
     70          1           0        4.831900   -5.151979   -0.613797
     71          1           0        3.796977   -5.296032    0.786649
     72          1           0        5.600975    3.563818   -2.186851
     73          1           0        6.249182    2.333354   -1.129094
     74          1           0        5.580774    1.887918   -2.680830
     75          1           0        5.077467   -0.099049   -1.568776
     76          1           0        6.726243   -1.569445    0.025103
     77          1           0        7.694028   -2.785069   -0.985019
     78          1           0        5.675925   -3.351951   -2.183981
     79          1           0        2.414791    5.301366   -0.841817
     80          1           0        4.576460    6.409054   -0.928914
     81          1           0        5.391483    4.771722   -1.228215
 ---------------------------------------------------------------------

 SCF Done:  E(UPBE1PBE) =  -3535.48563363     a.u. after   22 cycles

 Alpha virt. eigenvalues --    0.34603   0.34812   0.34955   0.35289   0.35359
 Alpha virt. eigenvalues --    0.35462   0.36002   0.36472   0.36702   0.37146
 Alpha virt. eigenvalues --    0.37264   0.37711   0.37943   0.38170   0.38374

  Beta  occ. eigenvalues -- -256.33401 -89.02412 -30.06534 -25.90096 -25.89753
  Beta  occ. eigenvalues --  -25.89196 -19.27844 -19.25529 -19.18030 -19.17692
  Beta  occ. eigenvalues --  -14.37249 -14.37183 -14.37166 -14.36478 -10.35895
  Beta  occ. eigenvalues --  -10.35129 -10.25292 -10.25046 -10.24847 -10.24817
  Beta  occ. eigenvalues --  -10.24773 -10.24736 -10.24652 -10.24613 -10.24466
  Beta  occ. eigenvalues --  -10.23787 -10.23025 -10.22924 -10.22684 -10.22541
  Beta  occ. eigenvalues --  -10.22449 -10.22448 -10.22415 -10.22344 -10.22112
  Beta  occ. eigenvalues --  -10.22041 -10.21982 -10.21931 -10.21928 -10.21890
  Beta  occ. eigenvalues --  -10.21739 -10.21508 -10.21477 -10.21339 -10.21260
  Beta  occ. eigenvalues --  -10.21256 -10.21232 -10.21138 -10.21081  -8.00684
  Beta  occ. eigenvalues --   -5.94355  -5.94001  -5.93471  -3.37764  -2.13373
  Beta  occ. eigenvalues --   -2.12340  -2.12135  -1.18547  -1.16424  -1.02984
  Beta  occ. eigenvalues --   -1.02398  -0.98389  -0.97353  -0.97071  -0.96039
  Beta  occ. eigenvalues --   -0.85143  -0.85010  -0.84816  -0.83848  -0.83200
  Beta  occ. eigenvalues --   -0.82009  -0.81801  -0.81014  -0.80278  -0.78980
  Beta  occ. eigenvalues --   -0.78066  -0.77179  -0.75937  -0.74555  -0.73249
  Beta  occ. eigenvalues --   -0.72700  -0.72065  -0.70848  -0.70110  -0.69535
  Beta  occ. eigenvalues --   -0.68595  -0.67161  -0.66056  -0.65507  -0.64590
  Beta  occ. eigenvalues --   -0.62946  -0.62172  -0.59591  -0.57834  -0.56106
  Beta  occ. eigenvalues --   -0.55994  -0.55092  -0.54338  -0.52926  -0.52904
  Beta  occ. eigenvalues --   -0.52496  -0.52111  -0.51635  -0.51621  -0.50867
  Beta  occ. eigenvalues --   -0.50388  -0.50260  -0.49487  -0.48885  -0.48704
  Beta  occ. eigenvalues --   -0.48615  -0.47387  -0.46930  -0.46040  -0.45799
  Beta  occ. eigenvalues --   -0.45642  -0.45357  -0.45348  -0.44980  -0.44668
  Beta  occ. eigenvalues --   -0.44441  -0.44155  -0.43934  -0.43898  -0.43492
  Beta  occ. eigenvalues --   -0.43318  -0.42880  -0.42589  -0.41973  -0.41797
  Beta  occ. eigenvalues --   -0.41357  -0.41169  -0.40739  -0.40400  -0.40105
  Beta  occ. eigenvalues --   -0.39593  -0.39489  -0.39253  -0.39193  -0.38575
  Beta  occ. eigenvalues --   -0.38437  -0.38157  -0.38010  -0.37558  -0.37514
  Beta  occ. eigenvalues --   -0.37146  -0.36918  -0.36319  -0.35491  -0.35253
  Beta  occ. eigenvalues --   -0.34967  -0.34687  -0.33843  -0.33269  -0.32968
  Beta  occ. eigenvalues --   -0.32714  -0.32554  -0.32028  -0.31408  -0.28899
  Beta  occ. eigenvalues --   -0.28390  -0.28293  -0.27744  -0.27563  -0.26687
  Beta  occ. eigenvalues --   -0.25834  -0.24557  -0.23182  -0.22765  -0.19998
  Beta  occ. eigenvalues --   -0.18943  -0.17448
  Beta virt. eigenvalues --   -0.07940  -0.07041  -0.02614  -0.01208  -0.01043
  Beta virt. eigenvalues --   -0.00683  -0.00351  -0.00226   0.00105   0.01131
  Beta virt. eigenvalues --    0.01670   0.02435   0.03525   0.03776   0.04398

 Mulliken charges and spin densities:
               1          2
     1  C   -0.332395   0.012165
     2  S   -0.125101   0.059110
     3  C   -0.531937  -0.002676
     4  C   -0.449410  -0.000606
     5  C   -0.437694  -0.012887
     6  C   -0.414317  -0.010513
     7  C    0.368661  -0.004077
     8  C   -0.061606   0.007778
     9  C   -0.013778   0.004503
    10  C    0.273655  -0.002119
    11  C   -0.396100   0.000663
    12  C   -0.339948   0.000633
    13  C   -0.185849  -0.000069
    14  C    0.275477  -0.000017
    15  O   -0.359437   0.000022
    16  O   -0.335747   0.000003
    17  C    0.186379  -0.007517
    18  C   -0.052830   0.003338
    19  C    0.124252  -0.003679
    20  C    0.202584  -0.001409
    21  C   -0.392398   0.001183
    22  C   -0.339555   0.000434
    23  C   -0.256520   0.000743
    24  C    0.277526   0.007784
    25  C   -0.116416   0.010041
    26  C    0.054212   0.009678
    27  C    0.263854   0.013574
    28  C   -0.387554  -0.000307
    29  C   -0.157545  -0.002513
    30  C   -0.257836   0.005413
    31  C    0.092056   0.002292
    32  C    0.023019  -0.004538
    33  C    0.030216   0.002327
    34  C    0.267662  -0.007809
    35  C   -0.397952   0.001536
    36  C   -0.334130   0.001441
    37  C   -0.189813   0.000001
    38  C    0.258720   0.000006
    39  O   -0.313336   0.000005
    40  O   -0.384881  -0.000006
    41  N   -0.081634   0.024441
    42  N   -0.030454   0.030270
    43  N   -0.069413   0.006331
    44  N   -0.075908   0.031307
    45  Fe  -0.115287   3.808695
    46  H    0.159834   0.000174
    47  H    0.158425  -0.000773
    48  H    0.157080   0.000937
    49  H    0.156883   0.013232
    50  H    0.342880  -0.000004
    51  H    0.133938  -0.000108
    52  H    0.150028   0.000170
    53  H    0.128302  -0.000440
    54  H    0.086101   0.000348
    55  H    0.357905  -0.000004
    56  H    0.103538   0.000036
    57  H    0.137623   0.000069
    58  H    0.145613   0.000312
    59  H    0.120422   0.000061
    60  H    0.134861  -0.000154
    61  H    0.138258   0.000219
    62  H    0.124558  -0.000042
    63  H    0.143207   0.000032
    64  H    0.128796   0.000301
    65  H    0.134828  -0.000408
    66  H    0.142832  -0.000551
    67  H    0.111807   0.000617
    68  H    0.122428  -0.000055
    69  H    0.136738  -0.000322
    70  H    0.138582   0.000390
    71  H    0.134199  -0.000409
    72  H    0.122645   0.000470
    73  H    0.148123   0.000245
    74  H    0.136561   0.000235
    75  H    0.151203   0.000576
    76  H    0.140771   0.000005
    77  H    0.129518   0.000072
    78  H    0.135621   0.000039
    79  H    0.108777   0.000107
    80  H    0.121359  -0.000108
    81  H    0.114267  -0.000247
 Sum of Mulliken charges =   0.00000   4.00000

 Dipole moment (field-independent basis, Debye):
    X=              0.9522    Y=              3.4807    Z=              3.0413  Tot=              4.7192
 Quadrupole moment (field-independent basis, Debye-Ang):
   XX=           -261.6374   YY=           -261.2025   ZZ=           -273.6705
   XY=            -33.6855   XZ=            -10.2770   YZ=              6.5512

 Summary of Natural Population Analysis:

                                       Natural Population
                Natural  -----------------------------------------------
    Atom  No    Charge         Core      Valence    Rydberg      Total
 -----------------------------------------------------------------------
      C    1   -0.35818      0.99963     2.35047    0.00808     3.35818
      S    2    0.16320      4.99909     2.81553    0.02217     7.83680
      C    3   -0.12234      0.99944     2.11445    0.00844     3.12234
      C    4   -0.11490      0.99949     2.10750    0.00791     3.11490
      C    5   -0.11976      0.99945     2.11212    0.00819     3.11976
      C    6   -0.12132      0.99946     2.11386    0.00801     3.12132
      C    7    0.07563      0.99949     1.91509    0.00978     2.92437
      C    8   -0.01619      0.99941     2.00742    0.00936     3.01619
      C    9   -0.00445      0.99943     1.99650    0.00851     3.00445
      C   10    0.07475      0.99953     1.91594    0.00978     2.92525
      C   11   -0.31870      0.99970     2.31529    0.00371     3.31870
      C   12   -0.21195      0.99966     2.20465    0.00764     3.21195
      C   13   -0.25191      0.99962     2.24400    0.00829     3.25191
      C   14    0.38590      0.99977     1.59628    0.01804     2.61410
      O   15   -0.29869      0.99989     3.28676    0.01204     4.29869
      O   16   -0.33416      0.99980     3.32020    0.01417     4.33416
      C   17    0.06688      0.99954     1.92324    0.01034     2.93312
      C   18    0.00404      0.99942     1.98812    0.00842     2.99596
      C   19   -0.06387      0.99940     2.05302    0.01145     3.06387
      C   20    0.08016      0.99950     1.90942    0.01092     2.91984
      C   21   -0.31997      0.99970     2.31673    0.00354     3.31997
      C   22   -0.09968      0.99957     2.08960    0.01051     3.09968
      C   23   -0.18421      0.99965     2.17690    0.00767     3.18421
      C   24    0.08175      0.99953     1.90923    0.00950     2.91825
      C   25    0.01091      0.99946     1.98127    0.00835     2.98909
      C   26   -0.05419      0.99945     2.04449    0.01025     3.05419
      C   27    0.09840      0.99953     1.89234    0.00974     2.90160
      C   28   -0.32018      0.99969     2.31659    0.00390     3.32018
      C   29   -0.10234      0.99956     2.09353    0.00925     3.10234
      C   30   -0.18179      0.99966     2.17582    0.00632     3.18179
      C   31    0.06732      0.99950     1.92276    0.01042     2.93268
      C   32   -0.01339      0.99937     2.00517    0.00885     3.01339
      C   33   -0.02142      0.99938     2.01235    0.00969     3.02142
      C   34    0.06669      0.99950     1.92318    0.01063     2.93331
      C   35   -0.31795      0.99970     2.31465    0.00360     3.31795
      C   36   -0.21247      0.99967     2.20542    0.00739     3.21247
      C   37   -0.24733      0.99962     2.23931    0.00840     3.24733
      C   38    0.38256      0.99977     1.59913    0.01854     2.61744
      O   39   -0.32320      0.99981     3.30989    0.01350     4.32320
      O   40   -0.31004      0.99989     3.29790    0.01225     4.31004
      N   41   -0.20477      0.99971     2.68721    0.01785     3.70477
      N   42   -0.19327      0.99970     2.67347    0.02010     3.69327
      N   43   -0.20927      0.99968     2.69452    0.01506     3.70927
      N   44   -0.19729      0.99972     2.67727    0.02029     3.69729
     Fe   45    2.05300      8.99316     1.93796    0.01587    10.94700
      H   46    0.11991      0.00000     0.37945    0.00065     0.38009
      H   47    0.11629      0.00000     0.38320    0.00051     0.38371
      H   48    0.11825      0.00000     0.38111    0.00063     0.38175
      H   49    0.08546      0.00000     0.41183    0.00271     0.41454
      H   50    0.25671      0.00000     0.24178    0.00152     0.24329
      H   51    0.12121      0.00000     0.37813    0.00065     0.37879
      H   52    0.11974      0.00000     0.37942    0.00085     0.38026
      H   53    0.10613      0.00000     0.39284    0.00103     0.39387
      H   54    0.10934      0.00000     0.38980    0.00085     0.39066
      H   55    0.26002      0.00000     0.23869    0.00129     0.23998
      H   56    0.11201      0.00000     0.38714    0.00085     0.38799
      H   57    0.11964      0.00000     0.37966    0.00070     0.38036
      H   58    0.12084      0.00000     0.37834    0.00082     0.37916
      H   59    0.10844      0.00000     0.39078    0.00078     0.39156
      H   60    0.10630      0.00000     0.39259    0.00111     0.39370
      H   61    0.11136      0.00000     0.38791    0.00073     0.38864
      H   62    0.10785      0.00000     0.39149    0.00067     0.39215
      H   63    0.11179      0.00000     0.38745    0.00077     0.38821
      H   64    0.10831      0.00000     0.39091    0.00078     0.39169
      H   65    0.11116      0.00000     0.38810    0.00074     0.38884
      H   66    0.10996      0.00000     0.38919    0.00084     0.39004
      H   67    0.10855      0.00000     0.39039    0.00106     0.39145
      H   68    0.10780      0.00000     0.39098    0.00121     0.39220
      H   69    0.11024      0.00000     0.38896    0.00080     0.38976
      H   70    0.11318      0.00000     0.38609    0.00073     0.38682
      H   71    0.11136      0.00000     0.38785    0.00079     0.38864
      H   72    0.10898      0.00000     0.39016    0.00086     0.39102
      H   73    0.11311      0.00000     0.38606    0.00083     0.38689
      H   74    0.11241      0.00000     0.38687    0.00071     0.38759
      H   75    0.11325      0.00000     0.38558    0.00117     0.38675
      H   76    0.09875      0.00000     0.40038    0.00088     0.40125
      H   77    0.09970      0.00000     0.39962    0.00068     0.40030
      H   78    0.10514      0.00000     0.39356    0.00130     0.39486
      H   79    0.10425      0.00000     0.39489    0.00086     0.39575
      H   80    0.09839      0.00000     0.40093    0.00068     0.40161
      H   81    0.09217      0.00000     0.40688    0.00094     0.40783
 =======================================================================
   * Total *    2.00000     56.97470   114.51556    0.50974   172.00000

 Normal termination of Gaussian 16 at Fri Jan 20 03:32:46 2023.
