 Gaussian 16, Revision A.03,
 Gaussian 16:  ES64L-G16RevA.03 25-Dec-2016

 ----------------------------------------------------------------------
 # PBE1PBE/def2TZVP empiricaldispersion=GD3BJ scf=maxcycle=999 geom=che
 ck pop=nbo
 ----------------------------------------------------------------------

 ---------
 2oyy_II_Q
 ---------
 Structure from the checkpoint file:  "2oyy_II_Q.chk"
 Charge =  0 Multiplicity = 5

                         Standard orientation:
 ---------------------------------------------------------------------
 Center     Atomic      Atomic             Coordinates (Angstroms)
 Number     Number       Type             X           Y           Z
 ---------------------------------------------------------------------
      1          6           0        4.234322   -2.734672    5.092978
      2          6           0        3.324331   -2.054154    4.098262
      3          6           0        2.750907   -2.776823    3.051971
      4          6           0        3.020503   -0.684443    4.199126
      5          6           0        1.904437   -2.157646    2.121445
      6          6           0        2.161896   -0.061775    3.278321
      7          6           0        1.612260   -0.805613    2.244641
      8          8           0        0.766830   -0.233178    1.327976
      9          6           0       -2.787468    0.142838   -0.681481
     10          6           0        0.240388    3.840925   -0.311996
     11          6           0        3.985430    0.812123   -0.596773
     12          6           0        0.964460   -2.864424   -1.494712
     13          6           0       -2.307372    1.412287   -0.537497
     14          6           0       -3.113220    2.609248   -0.375730
     15          6           0       -2.271101    3.642892   -0.270642
     16          6           0       -0.918308    3.117160   -0.368513
     17          6           0       -2.635645    5.133296   -0.078560
     18          6           0       -4.661612    2.639101   -0.326109
     19          6           0       -5.156496    2.152237    1.046261
     20          6           0       -6.670238    2.156028    1.111670
     21          8           0       -7.317730    3.125424    0.639950
     22          8           0       -7.246322    1.176881    1.635627
     23          6           0        1.518992    3.339986   -0.373655
     24          6           0        2.716728    4.143085   -0.361170
     25          6           0        3.764623    3.309002   -0.436018
     26          6           0        3.245678    1.959728   -0.506547
     27          6           0        2.734511    5.689203   -0.276090
     28          6           0        5.261501    3.699198   -0.445872
     29          6           0        5.637995    4.013877   -1.709121
     30          6           0        3.484540   -0.447234   -0.842958
     31          6           0        4.273556   -1.648122   -0.953870
     32          6           0        3.447019   -2.670059   -1.206842
     33          6           0        2.102681   -2.138909   -1.264834
     34          6           0        5.807554   -1.683751   -0.795153
     35          6           0        3.808496   -4.155282   -1.379208
     36          6           0        4.968815   -4.260413   -2.071433
     37          6           0       -0.320930   -2.388759   -1.365694
     38          6           0       -1.509866   -3.174613   -1.600087
     39          6           0       -2.654977   -2.235143   -1.355494
     40          6           0       -2.064363   -0.977253   -0.985869
     41          6           0       -1.636904   -4.645731   -2.022627
     42          6           0       -4.149987   -2.595048   -1.455807
     43          6           0       -4.511252   -3.025423   -0.034634
     44          6           0       -5.948604   -3.431373    0.093659
     45          8           0       -6.286068   -4.495709   -0.494563
     46          8           0       -6.720707   -2.700584    0.786256
     47          7           0       -0.974437    1.758859   -0.521787
     48          7           0        1.877447    2.009560   -0.462292
     49          7           0        2.153400   -0.779570   -1.036091
     50          7           0       -0.686008   -1.093298   -1.000501
     51         26           0        0.592548    0.498823   -0.548103
     52          1           0        4.102307   -2.291966    6.058111
     53          1           0        3.993530   -3.776059    5.142305
     54          1           0        5.251878   -2.618156    4.783297
     55          1           0        3.450725   -0.107142    4.990664
     56          1           0        1.933392    0.979190    3.373598
     57          1           0        1.484361   -2.725768    1.317906
     58          1           0        2.960685   -3.821832    2.957903
     59          1           0       -3.839938    0.010090   -0.541535
     60          1           0        0.142202    4.901491   -0.209718
     61          1           0        5.043572    0.900544   -0.464796
     62          1           0        1.083666   -3.883242   -1.799179
     63          1           0       -1.734818   -5.259753   -1.151829
     64          1           0       -2.500839   -4.765461   -2.642451
     65          1           0       -0.763560   -4.936874   -2.567976
     66          1           0       -1.835168    5.634292    0.424570
     67          1           0       -2.795938    5.587289   -1.034121
     68          1           0       -3.528083    5.209618    0.506786
     69          1           0       -5.002208    3.639956   -0.490983
     70          1           0       -5.053024    2.001080   -1.090718
     71          1           0       -4.770625    2.797415    1.807674
     72          1           0       -4.800334    1.157493    1.215179
     73          1           0       -7.247316    1.074981    2.590203
     74          1           0       -6.376409   -2.220694    1.543068
     75          1           0       -4.321278   -2.210508    0.632242
     76          1           0       -3.892191   -3.852454    0.244085
     77          1           0       -4.724066   -1.740577   -1.747716
     78          1           0       -4.297548   -3.402251   -2.142501
     79          1           0        3.925098   -4.608006   -0.416740
     80          1           0        3.027203   -4.652657   -1.915025
     81          1           0        5.723346   -4.682278   -1.440868
     82          1           0        4.820636   -4.892314   -2.922106
     83          1           0        5.278593   -3.289653   -2.397873
     84          1           0        6.060424   -1.616892    0.242385
     85          1           0        6.186426   -2.600532   -1.196240
     86          1           0        6.239847   -0.858545   -1.321515
     87          1           0        3.566225    6.004127    0.318869
     88          1           0        2.824250    6.099555   -1.260193
     89          1           0        1.825346    6.032241    0.171843
     90          1           0        5.414053    4.544104    0.192691
     91          1           0        5.847067    2.875733   -0.093852
     92          1           0        6.706159    4.023195   -1.771076
     93          1           0        5.247607    3.286060   -2.389400
     94          1           0        5.257480    4.980831   -1.964285
     95          1           0        0.600498    0.680083    1.572698
 ---------------------------------------------------------------------

 SCF Done:  E(UPBE1PBE) =  -3445.88542635     A.U. after  140 cycles

 Alpha virt. eigenvalues --    0.81014   0.81151   0.81239   0.81621   0.81796
 Alpha virt. eigenvalues --    0.82132   0.82418   0.82706   0.82972   0.83194
 Alpha virt. eigenvalues --    0.83449   0.83732   0.83886   0.84322   0.84365

  Beta  occ. eigenvalues -- -256.32094 -30.04636 -25.89003 -25.87469 -25.87062
  Beta  occ. eigenvalues --  -19.27242 -19.27148 -19.26792 -19.19268 -19.17717
  Beta  occ. eigenvalues --  -14.37205 -14.36990 -14.36218 -14.35770 -10.36398
  Beta  occ. eigenvalues --  -10.35243 -10.30038 -10.25266 -10.25208 -10.25148
  Beta  occ. eigenvalues --  -10.25073 -10.24907 -10.24845 -10.24733 -10.24592
  Beta  occ. eigenvalues --  -10.24249 -10.24201 -10.23932 -10.23782 -10.23771
  Beta  occ. eigenvalues --  -10.23544 -10.23457 -10.23387 -10.23340 -10.23143
  Beta  occ. eigenvalues --  -10.23083 -10.23082 -10.22818 -10.22633 -10.22324
  Beta  occ. eigenvalues --  -10.22321 -10.22213 -10.22182 -10.22181 -10.22170
  Beta  occ. eigenvalues --  -10.22054 -10.22035 -10.21887 -10.21877 -10.21547
  Beta  occ. eigenvalues --  -10.21200 -10.21045 -10.20793 -10.18977 -10.18655
  Beta  occ. eigenvalues --   -3.36104  -2.12162  -2.10498  -2.10266  -1.17836
  Beta  occ. eigenvalues --   -1.16479  -1.13025  -1.03391  -1.02266  -0.98341
  Beta  occ. eigenvalues --   -0.97397  -0.96619  -0.94896  -0.89190  -0.85524
  Beta  occ. eigenvalues --   -0.85336  -0.84591  -0.84033  -0.83322  -0.81826
  Beta  occ. eigenvalues --   -0.81484  -0.80688  -0.79824  -0.79297  -0.78399
  Beta  occ. eigenvalues --   -0.78159  -0.77769  -0.76431  -0.74540  -0.72945
  Beta  occ. eigenvalues --   -0.72265  -0.72229  -0.72021  -0.70744  -0.69973
  Beta  occ. eigenvalues --   -0.69150  -0.67420  -0.66759  -0.66179  -0.65914
  Beta  occ. eigenvalues --   -0.65590  -0.63273  -0.63103  -0.62983  -0.59891
  Beta  occ. eigenvalues --   -0.58494  -0.58419  -0.56918  -0.56096  -0.55701
  Beta  occ. eigenvalues --   -0.54413  -0.53914  -0.53570  -0.53351  -0.52609
  Beta  occ. eigenvalues --   -0.52326  -0.51935  -0.51742  -0.50318  -0.49905
  Beta  occ. eigenvalues --   -0.49759  -0.49632  -0.49530  -0.49280  -0.48910
  Beta  occ. eigenvalues --   -0.48581  -0.47531  -0.47355  -0.47133  -0.46622
  Beta  occ. eigenvalues --   -0.46125  -0.45988  -0.45527  -0.45195  -0.45008
  Beta  occ. eigenvalues --   -0.44905  -0.44695  -0.44629  -0.44233  -0.44022
  Beta  occ. eigenvalues --   -0.43921  -0.43345  -0.43199  -0.42849  -0.42431
  Beta  occ. eigenvalues --   -0.42364  -0.42165  -0.42034  -0.41383  -0.41155
  Beta  occ. eigenvalues --   -0.41131  -0.40647  -0.40576  -0.40424  -0.40029
  Beta  occ. eigenvalues --   -0.39944  -0.39680  -0.39251  -0.38877  -0.38668
  Beta  occ. eigenvalues --   -0.38132  -0.37867  -0.37728  -0.37613  -0.37179
  Beta  occ. eigenvalues --   -0.36881  -0.36539  -0.36264  -0.36057  -0.35808
  Beta  occ. eigenvalues --   -0.35426  -0.34880  -0.34595  -0.34306  -0.34023
  Beta  occ. eigenvalues --   -0.33609  -0.33196  -0.32724  -0.32222  -0.31618
  Beta  occ. eigenvalues --   -0.30480  -0.29393  -0.29050  -0.28824  -0.28508
  Beta  occ. eigenvalues --   -0.27465  -0.27436  -0.25685  -0.25333  -0.24663
  Beta  occ. eigenvalues --   -0.24182  -0.22112  -0.20283  -0.19550  -0.17551
  Beta virt. eigenvalues --   -0.08606  -0.07911  -0.02902  -0.02208  -0.01747
  Beta virt. eigenvalues --   -0.01348  -0.01253  -0.00851   0.00467   0.00572
  Beta virt. eigenvalues --    0.01579   0.02479   0.03088   0.03331   0.03863

 Mulliken charges and spin densities:
               1          2
     1  C   -0.388185  -0.000479
     2  C    0.174181   0.005831
     3  C   -0.220286  -0.003191
     4  C   -0.209492  -0.002923
     5  C   -0.170286   0.005797
     6  C   -0.208327   0.006034
     7  C    0.295514   0.006639
     8  O   -0.314608   0.014044
     9  C   -0.440629  -0.006122
    10  C   -0.471985  -0.012618
    11  C   -0.525538  -0.010077
    12  C   -0.557572  -0.010032
    13  C    0.254227   0.015059
    14  C    0.022235   0.009647
    15  C   -0.085677   0.005911
    16  C    0.277181   0.018478
    17  C   -0.417642   0.000036
    18  C   -0.372614  -0.000890
    19  C   -0.221341   0.000340
    20  C    0.312422   0.000055
    21  O   -0.339959  -0.000008
    22  O   -0.352556   0.000013
    23  C    0.295508   0.018457
    24  C   -0.077213   0.007273
    25  C   -0.060272   0.010912
    26  C    0.320515   0.019054
    27  C   -0.404657  -0.000174
    28  C   -0.177415  -0.000483
    29  C   -0.332685   0.000148
    30  C    0.291413   0.014259
    31  C   -0.083023   0.004192
    32  C   -0.089877   0.009385
    33  C    0.230081   0.015430
    34  C   -0.384830  -0.000171
    35  C   -0.078429   0.000091
    36  C   -0.392664   0.000107
    37  C    0.354586   0.013560
    38  C   -0.121515   0.006450
    39  C   -0.040727   0.009424
    40  C    0.240762   0.009865
    41  C   -0.406532   0.000453
    42  C   -0.230169  -0.000335
    43  C   -0.266726   0.000379
    44  C    0.348426   0.000135
    45  O   -0.375086   0.000054
    46  O   -0.313914   0.000016
    47  N   -0.129693  -0.015118
    48  N   -0.103766  -0.011295
    49  N   -0.174210   0.007827
    50  N   -0.138094   0.005069
    51  Fe   0.125000   3.831600
    52  H    0.129580   0.000114
    53  H    0.130107   0.000088
    54  H    0.135225   0.000301
    55  H    0.115376   0.000402
    56  H    0.119097  -0.000357
    57  H    0.154856   0.000256
    58  H    0.111531   0.000265
    59  H    0.113336  -0.000312
    60  H    0.098067   0.000194
    61  H    0.115209   0.000111
    62  H    0.096196  -0.000289
    63  H    0.142452   0.000192
    64  H    0.140422   0.000255
    65  H    0.129952   0.000049
    66  H    0.127882   0.000026
    67  H    0.152254   0.000275
    68  H    0.139269   0.000210
    69  H    0.156776   0.000338
    70  H    0.146129   0.000185
    71  H    0.139155   0.000021
    72  H    0.105468  -0.000015
    73  H    0.351232  -0.000000
    74  H    0.338105  -0.000001
    75  H    0.099746  -0.000010
    76  H    0.138530  -0.000016
    77  H    0.130422   0.000095
    78  H    0.136047   0.000233
    79  H    0.099343   0.000304
    80  H    0.093585   0.000135
    81  H    0.112430  -0.000004
    82  H    0.113486   0.000049
    83  H    0.142352   0.000120
    84  H    0.142232   0.000249
    85  H    0.141781   0.000206
    86  H    0.129982   0.000158
    87  H    0.130958   0.000279
    88  H    0.149011   0.000354
    89  H    0.126801   0.000062
    90  H    0.097488   0.000288
    91  H    0.098708   0.000072
    92  H    0.107443   0.000221
    93  H    0.126645   0.000048
    94  H    0.110208  -0.000020
    95  H    0.321267  -0.003237
 Sum of Mulliken charges =  -0.00000   4.00000

 Dipole moment (field-independent basis, Debye):
    X=              6.8319    Y=              1.6931    Z=              6.9860  Tot=              9.9169
 Quadrupole moment (field-independent basis, Debye-Ang):
   XX=           -338.7590   YY=           -306.9573   ZZ=           -290.0256
   XY=            -14.0255   XZ=            -20.6515   YZ=              0.2070

 Summary of Natural Population Analysis:

                                       Natural Population
                Natural  -----------------------------------------------
    Atom  No    Charge         Core      Valence    Rydberg      Total
 -----------------------------------------------------------------------
      C    1   -0.31424      0.99970     2.30881    0.00572     3.31424
      C    2   -0.01345      0.99958     2.00500    0.00887     3.01345
      C    3   -0.09707      0.99957     2.08932    0.00818     3.09707
      C    4   -0.09734      0.99959     2.08956    0.00820     3.09734
      C    5   -0.11924      0.99955     2.11022    0.00946     3.11924
      C    6   -0.13154      0.99955     2.12331    0.00868     3.13154
      C    7    0.13665      0.99933     1.85281    0.01121     2.86335
      O    8   -0.27715      0.99989     3.26732    0.00993     4.27715
      C    9   -0.11703      0.99945     2.10857    0.00900     3.11703
      C   10   -0.12837      0.99947     2.12063    0.00828     3.12837
      C   11   -0.12077      0.99946     2.11300    0.00830     3.12077
      C   12   -0.11122      0.99945     2.10356    0.00821     3.11122
      C   13    0.07830      0.99953     1.91221    0.00996     2.92170
      C   14   -0.01110      0.99936     2.00203    0.00970     3.01110
      C   15   -0.00798      0.99937     1.99992    0.00869     3.00798
      C   16    0.08311      0.99954     1.90709    0.01026     2.91689
      C   17   -0.31870      0.99970     2.31534    0.00366     3.31870
      C   18   -0.20719      0.99967     2.19997    0.00755     3.20719
      C   19   -0.25712      0.99963     2.24902    0.00847     3.25712
      C   20    0.38318      0.99975     1.59952    0.01755     2.61682
      O   21   -0.27909      0.99990     3.26780    0.01140     4.27909
      O   22   -0.34323      0.99979     3.32816    0.01529     4.34323
      C   23    0.08409      0.99953     1.90614    0.01023     2.91591
      C   24   -0.01079      0.99937     2.00257    0.00885     3.01079
      C   25   -0.00293      0.99938     1.99361    0.00995     3.00293
      C   26    0.08367      0.99953     1.90651    0.01030     2.91633
      C   27   -0.31783      0.99970     2.31448    0.00365     3.31783
      C   28   -0.20819      0.99958     2.20031    0.00830     3.20819
      C   29   -0.29577      0.99961     2.28845    0.00770     3.29577
      C   30    0.08446      0.99953     1.90577    0.01024     2.91554
      C   31   -0.01601      0.99937     2.00803    0.00862     3.01601
      C   32   -0.00429      0.99937     1.99522    0.00970     3.00429
      C   33    0.07910      0.99952     1.91073    0.01065     2.92090
      C   34   -0.32379      0.99969     2.32042    0.00368     3.32379
      C   35   -0.21693      0.99957     2.20869    0.00866     3.21693
      C   36   -0.30425      0.99962     2.29618    0.00845     3.30425
      C   37    0.06747      0.99950     1.92268    0.01035     2.93253
      C   38   -0.00221      0.99957     1.99455    0.00809     3.00221
      C   39   -0.00258      0.99957     1.99420    0.00881     3.00258
      C   40    0.06432      0.99948     1.92617    0.01003     2.93568
      C   41   -0.32227      0.99969     2.31881    0.00377     3.32227
      C   42   -0.21069      0.99966     2.20361    0.00742     3.21069
      C   43   -0.25009      0.99963     2.24158    0.00887     3.25009
      C   44    0.38014      0.99971     1.60326    0.01688     2.61986
      O   45   -0.29190      0.99990     3.28050    0.01150     4.29190
      O   46   -0.32188      0.99981     3.30733    0.01473     4.32188
      N   47   -0.24153      0.99971     2.72357    0.01825     3.74153
      N   48   -0.24396      0.99970     2.72619    0.01808     3.74396
      N   49   -0.22750      0.99972     2.70953    0.01825     3.72750
      N   50   -0.23273      0.99972     2.71460    0.01841     3.73273
     Fe   51    2.25322      8.99458     1.73734    0.01487    10.74678
      H   52    0.10897      0.00000     0.39050    0.00054     0.39103
      H   53    0.10874      0.00000     0.39073    0.00053     0.39126
      H   54    0.11072      0.00000     0.38868    0.00060     0.38928
      H   55    0.10661      0.00000     0.39275    0.00064     0.39339
      H   56    0.10784      0.00000     0.39148    0.00068     0.39216
      H   57    0.11912      0.00000     0.37984    0.00104     0.38088
      H   58    0.10620      0.00000     0.39310    0.00070     0.39380
      H   59    0.10343      0.00000     0.39507    0.00150     0.39657
      H   60    0.10750      0.00000     0.39106    0.00143     0.39250
      H   61    0.10865      0.00000     0.38987    0.00148     0.39135
      H   62    0.10817      0.00000     0.39020    0.00163     0.39183
      H   63    0.11071      0.00000     0.38843    0.00086     0.38929
      H   64    0.11271      0.00000     0.38647    0.00082     0.38729
      H   65    0.10877      0.00000     0.39055    0.00068     0.39123
      H   66    0.10829      0.00000     0.39108    0.00063     0.39171
      H   67    0.11291      0.00000     0.38633    0.00076     0.38709
      H   68    0.11019      0.00000     0.38911    0.00070     0.38981
      H   69    0.11975      0.00000     0.37951    0.00074     0.38025
      H   70    0.11114      0.00000     0.38808    0.00078     0.38886
      H   71    0.11875      0.00000     0.38059    0.00066     0.38125
      H   72    0.10504      0.00000     0.39414    0.00082     0.39496
      H   73    0.25629      0.00000     0.24252    0.00118     0.24371
      H   74    0.25042      0.00000     0.24841    0.00117     0.24958
      H   75    0.09565      0.00000     0.40351    0.00084     0.40435
      H   76    0.12089      0.00000     0.37844    0.00066     0.37911
      H   77    0.10839      0.00000     0.39079    0.00082     0.39161
      H   78    0.11896      0.00000     0.38018    0.00086     0.38104
      H   79    0.10694      0.00000     0.39196    0.00110     0.39306
      H   80    0.10547      0.00000     0.39384    0.00069     0.39453
      H   81    0.10241      0.00000     0.39693    0.00066     0.39759
      H   82    0.10680      0.00000     0.39260    0.00061     0.39320
      H   83    0.10925      0.00000     0.39000    0.00075     0.39075
      H   84    0.11126      0.00000     0.38797    0.00078     0.38874
      H   85    0.11247      0.00000     0.38665    0.00088     0.38753
      H   86    0.10893      0.00000     0.39035    0.00072     0.39107
      H   87    0.10916      0.00000     0.39009    0.00075     0.39084
      H   88    0.11156      0.00000     0.38765    0.00079     0.38844
      H   89    0.10768      0.00000     0.39169    0.00063     0.39232
      H   90    0.10293      0.00000     0.39579    0.00128     0.39707
      H   91    0.10269      0.00000     0.39652    0.00079     0.39731
      H   92    0.10254      0.00000     0.39672    0.00074     0.39746
      H   93    0.10548      0.00000     0.39383    0.00069     0.39452
      H   94    0.10138      0.00000     0.39784    0.00077     0.39862
      H   95    0.25048      0.00000     0.24760    0.00193     0.24952
 =======================================================================
   * Total *    2.00000     58.97417   130.47367    0.55217   190.00000

 Normal termination of Gaussian 16 at Sat Sep  3 00:55:02 2022.
