 Gaussian 16, Revision A.03,
 Gaussian 16:  ES64L-G16RevA.03 25-Dec-2016

 ----------------------------------------------------------------------
 # PBE1PBE/def2TZVP empiricaldispersion=GD3BJ geom=check guess=read scr
 f=(smd,solvent=Chloroform)
 ----------------------------------------------------------------------

 ---------------
 2oyy_III_D_solv
 ---------------
 Structure from the checkpoint file:  "2oyy_III_D.chk"
 Charge =  1 Multiplicity = 2

                         Standard orientation:
 ---------------------------------------------------------------------
 Center     Atomic      Atomic             Coordinates (Angstroms)
 Number     Number       Type             X           Y           Z
 ---------------------------------------------------------------------
      1          6           0        4.234322   -2.734672    5.092978
      2          6           0        3.324331   -2.054154    4.098262
      3          6           0        2.750907   -2.776823    3.051971
      4          6           0        3.020503   -0.684443    4.199126
      5          6           0        1.904437   -2.157646    2.121445
      6          6           0        2.161896   -0.061775    3.278321
      7          6           0        1.612260   -0.805613    2.244641
      8          8           0        0.766830   -0.233178    1.327976
      9          6           0       -2.787468    0.142838   -0.681481
     10          6           0        0.240388    3.840925   -0.311996
     11          6           0        3.985430    0.812123   -0.596773
     12          6           0        0.964460   -2.864424   -1.494712
     13          6           0       -2.307372    1.412287   -0.537497
     14          6           0       -3.113220    2.609248   -0.375730
     15          6           0       -2.271101    3.642892   -0.270642
     16          6           0       -0.918308    3.117160   -0.368513
     17          6           0       -2.635645    5.133296   -0.078560
     18          6           0       -4.661612    2.639101   -0.326109
     19          6           0       -5.156496    2.152237    1.046261
     20          6           0       -6.670238    2.156028    1.111670
     21          8           0       -7.317730    3.125424    0.639950
     22          8           0       -7.246322    1.176881    1.635627
     23          6           0        1.518992    3.339986   -0.373655
     24          6           0        2.716728    4.143085   -0.361170
     25          6           0        3.764623    3.309002   -0.436018
     26          6           0        3.245678    1.959728   -0.506547
     27          6           0        2.734511    5.689203   -0.276090
     28          6           0        5.261501    3.699198   -0.445872
     29          6           0        5.637995    4.013877   -1.709121
     30          6           0        3.484540   -0.447234   -0.842958
     31          6           0        4.273556   -1.648122   -0.953870
     32          6           0        3.447019   -2.670059   -1.206842
     33          6           0        2.102681   -2.138909   -1.264834
     34          6           0        5.807554   -1.683751   -0.795153
     35          6           0        3.808496   -4.155282   -1.379208
     36          6           0        4.968815   -4.260413   -2.071433
     37          6           0       -0.320930   -2.388759   -1.365694
     38          6           0       -1.509866   -3.174613   -1.600087
     39          6           0       -2.654977   -2.235143   -1.355494
     40          6           0       -2.064363   -0.977253   -0.985869
     41          6           0       -1.636904   -4.645731   -2.022627
     42          6           0       -4.149987   -2.595048   -1.455807
     43          6           0       -4.511252   -3.025423   -0.034634
     44          6           0       -5.948604   -3.431373    0.093659
     45          8           0       -6.286068   -4.495709   -0.494563
     46          8           0       -6.720707   -2.700584    0.786256
     47          7           0       -0.974437    1.758859   -0.521787
     48          7           0        1.877447    2.009560   -0.462292
     49          7           0        2.153400   -0.779570   -1.036091
     50          7           0       -0.686008   -1.093298   -1.000501
     51         26           0        0.592548    0.498823   -0.548103
     52          1           0        4.102307   -2.291966    6.058111
     53          1           0        3.993530   -3.776059    5.142305
     54          1           0        5.251878   -2.618156    4.783297
     55          1           0        3.450725   -0.107142    4.990664
     56          1           0        1.933392    0.979190    3.373598
     57          1           0        1.484361   -2.725768    1.317906
     58          1           0        2.960685   -3.821832    2.957903
     59          1           0       -3.839938    0.010090   -0.541535
     60          1           0        0.142202    4.901491   -0.209718
     61          1           0        5.043572    0.900544   -0.464796
     62          1           0        1.083666   -3.883242   -1.799179
     63          1           0       -1.734818   -5.259753   -1.151829
     64          1           0       -2.500839   -4.765461   -2.642451
     65          1           0       -0.763560   -4.936874   -2.567976
     66          1           0       -1.835168    5.634292    0.424570
     67          1           0       -2.795938    5.587289   -1.034121
     68          1           0       -3.528083    5.209618    0.506786
     69          1           0       -5.002208    3.639956   -0.490983
     70          1           0       -5.053024    2.001080   -1.090718
     71          1           0       -4.770625    2.797415    1.807674
     72          1           0       -4.800334    1.157493    1.215179
     73          1           0       -7.247316    1.074981    2.590203
     74          1           0       -6.376409   -2.220694    1.543068
     75          1           0       -4.321278   -2.210508    0.632242
     76          1           0       -3.892191   -3.852454    0.244085
     77          1           0       -4.724066   -1.740577   -1.747716
     78          1           0       -4.297548   -3.402251   -2.142501
     79          1           0        3.925098   -4.608006   -0.416740
     80          1           0        3.027203   -4.652657   -1.915025
     81          1           0        5.723346   -4.682278   -1.440868
     82          1           0        4.820636   -4.892314   -2.922106
     83          1           0        5.278593   -3.289653   -2.397873
     84          1           0        6.060424   -1.616892    0.242385
     85          1           0        6.186426   -2.600532   -1.196240
     86          1           0        6.239847   -0.858545   -1.321515
     87          1           0        3.566225    6.004127    0.318869
     88          1           0        2.824250    6.099555   -1.260193
     89          1           0        1.825346    6.032241    0.171843
     90          1           0        5.414053    4.544104    0.192691
     91          1           0        5.847067    2.875733   -0.093852
     92          1           0        6.706159    4.023195   -1.771076
     93          1           0        5.247607    3.286060   -2.389400
     94          1           0        5.257480    4.980831   -1.964285
     95          1           0        0.600498    0.680083    1.572698
 ---------------------------------------------------------------------

 SCF Done:  E(UPBE1PBE) =  -3445.76381590     A.U. after   57 cycles

 Alpha virt. eigenvalues --    0.81067   0.81248   0.81422   0.81627   0.81831
 Alpha virt. eigenvalues --    0.82352   0.82553   0.82699   0.82955   0.83442
 Alpha virt. eigenvalues --    0.83724   0.84134   0.84860   0.85077   0.85165

  Beta  occ. eigenvalues -- -256.38303 -30.13026 -25.96690 -25.96119 -25.94934
  Beta  occ. eigenvalues --  -19.29504 -19.28034 -19.26749 -19.20330 -19.19647
  Beta  occ. eigenvalues --  -14.43683 -14.43434 -14.42903 -14.42177 -10.37406
  Beta  occ. eigenvalues --  -10.37019 -10.31459 -10.29271 -10.29187 -10.29183
  Beta  occ. eigenvalues --  -10.29053 -10.29037 -10.28803 -10.28781 -10.28725
  Beta  occ. eigenvalues --  -10.27512 -10.27460 -10.27415 -10.27376 -10.27076
  Beta  occ. eigenvalues --  -10.26792 -10.25891 -10.25712 -10.25618 -10.25273
  Beta  occ. eigenvalues --  -10.25195 -10.25118 -10.25045 -10.24980 -10.24797
  Beta  occ. eigenvalues --  -10.24761 -10.24742 -10.24700 -10.24587 -10.24418
  Beta  occ. eigenvalues --  -10.24185 -10.23201 -10.23193 -10.23071 -10.22500
  Beta  occ. eigenvalues --  -10.22354 -10.22048 -10.21908 -10.19880 -10.19337
  Beta  occ. eigenvalues --   -3.45712  -2.22364  -2.21709  -2.18491  -1.17980
  Beta  occ. eigenvalues --   -1.17464  -1.14929  -1.04430  -1.04185  -1.03087
  Beta  occ. eigenvalues --   -1.02123  -1.01397  -0.99731  -0.90429  -0.88981
  Beta  occ. eigenvalues --   -0.87359  -0.87128  -0.86346  -0.86130  -0.85752
  Beta  occ. eigenvalues --   -0.85056  -0.81951  -0.81737  -0.81617  -0.81236
  Beta  occ. eigenvalues --   -0.80923  -0.80304  -0.79345  -0.77450  -0.74886
  Beta  occ. eigenvalues --   -0.74514  -0.74221  -0.73029  -0.72621  -0.71659
  Beta  occ. eigenvalues --   -0.70866  -0.70283  -0.69753  -0.67950  -0.67663
  Beta  occ. eigenvalues --   -0.67059  -0.65021  -0.64748  -0.64230  -0.63629
  Beta  occ. eigenvalues --   -0.62905  -0.59716  -0.59590  -0.59176  -0.58913
  Beta  occ. eigenvalues --   -0.57209  -0.56614  -0.55775  -0.55537  -0.54867
  Beta  occ. eigenvalues --   -0.54616  -0.54074  -0.53561  -0.52947  -0.52074
  Beta  occ. eigenvalues --   -0.51699  -0.51130  -0.50934  -0.50612  -0.50425
  Beta  occ. eigenvalues --   -0.50037  -0.49944  -0.49751  -0.49198  -0.48682
  Beta  occ. eigenvalues --   -0.48529  -0.48508  -0.47930  -0.47573  -0.47509
  Beta  occ. eigenvalues --   -0.47032  -0.46946  -0.46440  -0.46093  -0.45894
  Beta  occ. eigenvalues --   -0.45639  -0.45524  -0.45174  -0.44866  -0.44835
  Beta  occ. eigenvalues --   -0.44252  -0.44106  -0.44031  -0.43865  -0.43726
  Beta  occ. eigenvalues --   -0.43283  -0.43049  -0.42871  -0.42302  -0.42000
  Beta  occ. eigenvalues --   -0.41627  -0.41361  -0.41237  -0.41042  -0.40908
  Beta  occ. eigenvalues --   -0.40625  -0.40147  -0.40059  -0.39893  -0.39089
  Beta  occ. eigenvalues --   -0.38799  -0.38479  -0.38390  -0.38141  -0.37722
  Beta  occ. eigenvalues --   -0.37234  -0.37122  -0.36754  -0.36350  -0.36067
  Beta  occ. eigenvalues --   -0.35500  -0.35314  -0.34909  -0.34787  -0.34333
  Beta  occ. eigenvalues --   -0.34271  -0.33960  -0.33256  -0.32941  -0.30328
  Beta  occ. eigenvalues --   -0.29676  -0.29517  -0.28902  -0.28677  -0.28317
  Beta  occ. eigenvalues --   -0.26731  -0.26485  -0.26172  -0.25387  -0.23851
  Beta  occ. eigenvalues --   -0.22916
  Beta virt. eigenvalues --   -0.12526  -0.11677  -0.05153  -0.04676  -0.03530
  Beta virt. eigenvalues --   -0.03448  -0.03104  -0.01619  -0.01236  -0.00977
  Beta virt. eigenvalues --    0.00135   0.00827   0.01032   0.02354   0.02963

 Mulliken charges and spin densities:
               1          2
     1  C   -0.406581   0.000072
     2  C    0.156208  -0.002586
     3  C   -0.244125  -0.001091
     4  C   -0.224849   0.000182
     5  C   -0.201125  -0.000467
     6  C   -0.238739   0.000033
     7  C    0.301588  -0.001577
     8  O   -0.325943  -0.003277
     9  C   -0.391815  -0.238938
    10  C   -0.448051  -0.242658
    11  C   -0.495106  -0.239220
    12  C   -0.515060  -0.224419
    13  C    0.247225   0.079156
    14  C    0.013417   0.014577
    15  C   -0.093424   0.005821
    16  C    0.286303   0.084209
    17  C   -0.433110  -0.001246
    18  C   -0.342163  -0.001842
    19  C   -0.234047   0.000525
    20  C    0.327270   0.000264
    21  O   -0.392958  -0.000025
    22  O   -0.368193   0.000052
    23  C    0.306526   0.095321
    24  C   -0.087516  -0.001711
    25  C   -0.075952   0.023454
    26  C    0.332602   0.065956
    27  C   -0.420648  -0.001074
    28  C   -0.147393  -0.002722
    29  C   -0.383413   0.000341
    30  C    0.301642   0.083145
    31  C   -0.104971   0.012387
    32  C   -0.101822   0.006580
    33  C    0.246452   0.073145
    34  C   -0.394957  -0.000911
    35  C   -0.068095  -0.001881
    36  C   -0.432752   0.000265
    37  C    0.344939   0.072394
    38  C   -0.120839  -0.013901
    39  C   -0.041923   0.023829
    40  C    0.232217   0.059874
    41  C   -0.432637  -0.000573
    42  C   -0.214383  -0.002722
    43  C   -0.282561   0.001167
    44  C    0.354167   0.000530
    45  O   -0.425712   0.000171
    46  O   -0.332595   0.000054
    47  N   -0.065062  -0.193121
    48  N   -0.042094  -0.184094
    49  N   -0.109060  -0.194017
    50  N   -0.090418  -0.161212
    51  Fe   0.030774   1.970754
    52  H    0.147420  -0.000075
    53  H    0.147805  -0.000079
    54  H    0.149357  -0.000232
    55  H    0.150627   0.000018
    56  H    0.154116  -0.000129
    57  H    0.165434  -0.000028
    58  H    0.145981  -0.000089
    59  H    0.172993   0.010191
    60  H    0.164358   0.010408
    61  H    0.175276   0.010431
    62  H    0.160475   0.010370
    63  H    0.163439  -0.000102
    64  H    0.164185  -0.000167
    65  H    0.154459  -0.000331
    66  H    0.149622  -0.000061
    67  H    0.169219   0.000591
    68  H    0.162106   0.000043
    69  H    0.160493  -0.000029
    70  H    0.157399   0.000199
    71  H    0.162243  -0.000039
    72  H    0.123175   0.000178
    73  H    0.393321  -0.000002
    74  H    0.381833  -0.000010
    75  H    0.130165   0.000040
    76  H    0.155783  -0.000129
    77  H    0.148917   0.000096
    78  H    0.150714   0.000119
    79  H    0.121022   0.000593
    80  H    0.115242   0.000065
    81  H    0.131197  -0.000013
    82  H    0.132727   0.000032
    83  H    0.147730  -0.000112
    84  H    0.160358   0.000835
    85  H    0.162073  -0.000009
    86  H    0.149707   0.000291
    87  H    0.157098   0.000118
    88  H    0.167508   0.000305
    89  H    0.149360  -0.000157
    90  H    0.120778   0.000395
    91  H    0.116481   0.000126
    92  H    0.129945   0.000482
    93  H    0.129214  -0.000007
    94  H    0.129397  -0.000114
    95  H    0.368013  -0.002982
 Sum of Mulliken charges =   1.00000   1.00000

 Dipole moment (field-independent basis, Debye):
    X=             10.6675    Y=              4.0236    Z=              6.0522  Tot=             12.9079
 Quadrupole moment (field-independent basis, Debye-Ang):
   XX=           -285.4309   YY=           -256.6597   ZZ=           -273.9539
   XY=            -13.5320   XZ=            -25.3605   YZ=              3.4020

 Normal termination of Gaussian 16 at Fri Nov  4 17:26:22 2022.
