 Gaussian 16, Revision A.03,

 ----------------------------------------------------------------------
 # PBE1PBE/def2TZVP guess=read empiricaldispersion=GD3BJ scf=maxcycle=9
 99 geom=check pop=nbo
 ----------------------------------------------------------------------

 ----------
 7abb_III_H
 ----------
 Structure from the checkpoint file:  "7abb_III_Hn.chk"
 Charge =  1 Multiplicity = 6

 SCF Done:  E(UPBE1PBE) =  -3536.07871142     A.U. after   56 cycles

 Summary of Natural Population Analysis:

                                       Natural Population
                Natural  -----------------------------------------------
    Atom  No    Charge         Core      Valence    Rydberg      Total
 -----------------------------------------------------------------------
      C    1   -0.36475      0.99963     2.35818    0.00694     3.36475
      S    2    0.25758      4.99918     2.71768    0.02555     7.74242
      H    3    0.12187      0.00000     0.37744    0.00069     0.37813
      H    4    0.12479      0.00000     0.37476    0.00045     0.37521
      H    5    0.06882      0.00000     0.42937    0.00180     0.43118
     Fe    6    1.67244      8.99526     2.31602    0.01627    11.32756
      C    7   -0.12244      0.99947     2.11441    0.00856     3.12244
      C    8   -0.08943      0.99950     2.08225    0.00768     3.08943
      C    9   -0.08998      0.99948     2.08277    0.00773     3.08998
      C   10   -0.11235      0.99947     2.10487    0.00801     3.11235
      N   11   -0.23687      0.99970     2.71657    0.02061     3.73687
      C   12    0.10175      0.99952     1.88862    0.01012     2.89825
      C   13   -0.00884      0.99934     2.00069    0.00881     3.00884
      C   14    0.01827      0.99939     1.97450    0.00784     2.98173
      C   15    0.06885      0.99954     1.92120    0.01041     2.93115
      C   16   -0.30553      0.99958     2.30279    0.00316     3.30553
      C   17   -0.19458      0.99951     2.18935    0.00572     3.19458
      C   18   -0.23855      0.99951     2.23131    0.00773     3.23855
      C   19    0.38237      0.99978     1.59971    0.01813     2.61763
      O   20   -0.27320      0.99989     3.26132    0.01199     4.27320
      O   21   -0.34304      0.99980     3.32924    0.01400     4.34304
      N   22   -0.22239      0.99969     2.70196    0.02073     3.72239
      C   23    0.06597      0.99955     1.92407    0.01042     2.93403
      C   24    0.06427      0.99937     1.92864    0.00771     2.93573
      C   25   -0.08735      0.99938     2.07885    0.00912     3.08735
      C   26    0.08583      0.99952     1.90462    0.01004     2.91417
      C   27   -0.30123      0.99956     2.29842    0.00324     3.30123
      C   28    0.43121      0.99918     1.56489    0.00472     2.56879
      C   29   -0.33434      0.99960     2.33191    0.00283     3.33434
      N   30   -0.21451      0.99969     2.69397    0.02085     3.71451
      C   31    0.06060      0.99953     1.92954    0.01033     2.93940
      C   32    0.11691      0.99940     1.87600    0.00768     2.88309
      C   33   -0.10884      0.99939     2.10110    0.00835     3.10884
      C   34    0.12561      0.99955     1.86483    0.01002     2.87439
      C   35   -0.30511      0.99957     2.30236    0.00319     3.30511
      C   36    0.40750      0.99927     1.58861    0.00462     2.59250
      C   37   -0.33071      0.99957     2.32817    0.00296     3.33071
      N   38   -0.23369      0.99969     2.71391    0.02009     3.73369
      C   39    0.08812      0.99947     1.90256    0.00985     2.91188
      C   40    0.03190      0.99957     1.96095    0.00758     2.96810
      C   41    0.03066      0.99958     1.96176    0.00801     2.96934
      C   42    0.08910      0.99949     1.90131    0.01011     2.91090
      C   43   -0.30741      0.99957     2.30479    0.00305     3.30741
      C   44   -0.20320      0.99954     2.19797    0.00569     3.20320
      C   45   -0.23803      0.99951     2.23082    0.00770     3.23803
      C   46    0.38400      0.99978     1.59797    0.01824     2.61600
      O   47   -0.26890      0.99989     3.25716    0.01185     4.26890
      O   48   -0.34366      0.99979     3.32887    0.01500     4.34366
      H   49    0.10630      0.00000     0.39262    0.00108     0.39370
      H   50    0.10718      0.00000     0.39149    0.00133     0.39282
      H   51    0.11171      0.00000     0.38694    0.00136     0.38829
      H   52    0.11012      0.00000     0.38834    0.00153     0.38988
      H   53    0.10960      0.00000     0.38975    0.00065     0.39040
      H   54    0.10701      0.00000     0.39239    0.00060     0.39299
      H   55    0.11067      0.00000     0.38870    0.00063     0.38933
      H   56    0.10388      0.00000     0.39495    0.00116     0.39612
      H   57    0.10135      0.00000     0.39766    0.00100     0.39865
      H   58    0.11063      0.00000     0.38876    0.00061     0.38937
      H   59    0.11303      0.00000     0.38639    0.00058     0.38697
      H   60    0.11109      0.00000     0.38824    0.00067     0.38891
      H   61    0.11067      0.00000     0.38865    0.00068     0.38933
      H   62    0.10254      0.00000     0.39693    0.00053     0.39746
      H   63    0.07052      0.00000     0.42830    0.00118     0.42948
      H   64    0.12633      0.00000     0.37310    0.00056     0.37367
      H   65    0.11130      0.00000     0.38820    0.00050     0.38870
      H   66    0.10628      0.00000     0.39309    0.00063     0.39372
      H   67    0.11448      0.00000     0.38491    0.00061     0.38552
      H   68    0.11169      0.00000     0.38764    0.00067     0.38831
      H   69    0.10388      0.00000     0.39558    0.00054     0.39612
      H   70    0.06640      0.00000     0.43263    0.00098     0.43360
      H   71    0.11226      0.00000     0.38728    0.00046     0.38774
      H   72    0.10553      0.00000     0.39379    0.00067     0.39447
      H   73    0.12243      0.00000     0.37707    0.00051     0.37757
      H   74    0.11169      0.00000     0.38766    0.00065     0.38831
      H   75    0.10489      0.00000     0.39458    0.00054     0.39511
      H   76    0.11314      0.00000     0.38624    0.00062     0.38686
      H   77    0.10945      0.00000     0.38962    0.00093     0.39055
      H   78    0.10262      0.00000     0.39606    0.00132     0.39738
      H   79    0.10788      0.00000     0.39152    0.00059     0.39212
      H   80    0.11310      0.00000     0.38625    0.00064     0.38690
      H   81    0.12613      0.00000     0.37343    0.00044     0.37387
      H   82    0.26128      0.00000     0.23756    0.00116     0.23872
      H   83    0.26344      0.00000     0.23539    0.00118     0.23656
 =======================================================================
   * Total *    3.00000     56.97527   114.54079    0.48394   172.00000

 Normal termination of Gaussian 16 at Sat Feb 25 05:12:25 2023.
 Gaussian 16:  ES64L-G16RevA.03 25-Dec-2016

 ----------------------------------------------------------------------
 # PBE1PBE/def2TZVP empiricaldispersion=GD3BJ int=(grid=ultrafine) geom
 =check guess=read scrf=(smd,solvent=Chloroform)
 ----------------------------------------------------------------------

 ---------------
 7abb_III_H_solv
 ---------------
 Structure from the checkpoint file:  "7abb_III_Hn.chk"
 Charge =  1 Multiplicity = 6

                         Standard orientation:
 ---------------------------------------------------------------------
 Center     Atomic      Atomic             Coordinates (Angstroms)
 Number     Number       Type             X           Y           Z
 ---------------------------------------------------------------------
      1          6           0       -0.099815   -0.741131    2.868263
      2         16           0       -1.423706    0.139127    2.014664
      3          1           0        0.227513   -1.563284    2.266747
      4          1           0       -0.461893   -1.107320    3.806189
      5          1           0       -2.337969   -0.615733    1.828081
      6         26           0       -1.025414   -0.053066   -0.216733
      7          6           0        2.410616    0.119091   -0.148010
      8          6           0       -0.789278   -3.469434   -0.131450
      9          6           0       -4.449014   -0.247233   -0.242724
     10          6           0       -1.240077    3.314351   -0.674279
     11          7           0        0.489991   -1.382738   -0.170891
     12          6           0        1.859113   -1.126380   -0.096827
     13          6           0        2.623336   -2.351303    0.019404
     14          6           0        1.708493   -3.337365    0.033159
     15          6           0        0.393101   -2.757699   -0.086525
     16          6           0        1.955411   -4.854175    0.120335
     17          6           0        4.182832   -2.483606    0.151075
     18          6           0        4.912583   -2.563023   -1.183552
     19          6           0        6.401750   -2.744028   -0.943018
     20          8           0        7.114661   -2.699264   -1.971834
     21          8           0        6.806125   -2.922694    0.235728
     22          7           0       -2.357297   -1.556886   -0.248840
     23          6           0       -2.064224   -2.905433   -0.160252
     24          6           0       -3.307601   -3.611986   -0.083719
     25          6           0       -4.313175   -2.717926   -0.089260
     26          6           0       -3.742102   -1.422019   -0.217716
     27          6           0       -3.342756   -5.148948    0.032982
     28          6           0       -5.814049   -2.848802   -0.052365
     29          6           0       -6.358155   -4.174454    0.372104
     30          7           0       -2.541438    1.287127   -0.453129
     31          6           0       -3.882130    0.999743   -0.336288
     32          6           0       -4.627983    2.229525   -0.362337
     33          6           0       -3.749448    3.251206   -0.475380
     34          6           0       -2.435849    2.654854   -0.552528
     35          6           0       -6.151506    2.298646   -0.240820
     36          6           0       -3.969218    4.769311   -0.583589
     37          6           0       -5.287135    5.376666   -0.103393
     38          7           0        0.324537    1.405425   -0.403278
     39          6           0       -0.009197    2.748106   -0.581492
     40          6           0        1.205216    3.499242   -0.636041
     41          6           0        2.340441    2.549424   -0.482733
     42          6           0        1.700094    1.262464   -0.320043
     43          6           0        1.297534    5.017035   -0.837559
     44          6           0        3.847411    2.859317   -0.482445
     45          6           0        4.269936    3.073162    0.950767
     46          6           0        5.770336    3.280985    1.024580
     47          8           0        6.259614    3.752494    2.073402
     48          8           0        6.445156    2.967747    0.023276
     49          1           0        3.383677    0.193162   -0.053979
     50          1           0       -0.728005   -4.447712   -0.143132
     51          1           0       -5.426892   -0.300902   -0.191104
     52          1           0       -1.276876    4.279612   -0.843134
     53          1           0        1.521632   -5.210259    0.923349
     54          1           0        2.918963   -5.025581    0.166546
     55          1           0        1.584177   -5.291048   -0.674614
     56          1           0        4.382121   -3.285271    0.659865
     57          1           0        4.517774   -1.716114    0.640182
     58          1           0        4.762834   -1.744137   -1.682737
     59          1           0        4.574113   -3.316135   -1.692729
     60          1           0       -3.822312   -5.519223   -0.724659
     61          1           0       -3.791898   -5.400450    0.855071
     62          1           0       -2.436412   -5.493245    0.042080
     63          1           0       -6.168916   -2.628224   -0.916627
     64          1           0       -6.046350   -4.861525   -0.238223
     65          1           0       -7.327273   -4.145602    0.359478
     66          1           0       -6.051662   -4.376908    1.270560
     67          1           0       -6.520392    2.712902   -1.036572
     68          1           0       -6.390518    2.824176    0.537939
     69          1           0       -6.508827    1.401769   -0.148697
     70          1           0       -3.241372    5.222307   -0.152932
     71          1           0       -5.109538    6.017527    0.602926
     72          1           0       -5.862850    4.673702    0.235541
     73          1           0       -5.725633    5.825239   -0.843389
     74          1           0        1.747402    5.421729   -0.067430
     75          1           0        0.395708    5.390924   -0.923010
     76          1           0        1.808740    5.207229   -1.651500
     77          1           0        4.018605    3.662087   -0.998879
     78          1           0        4.337862    2.112813   -0.862131
     79          1           0        4.026676    2.295505    1.476338
     80          1           0        3.819015    3.855491    1.305422
     81          1           0        0.719958   -0.074754    3.038008
     82          1           0        6.863863    2.105092   -0.022668
     83          1           0        7.177077   -3.770023    0.492687
 ---------------------------------------------------------------------

 SCF Done:  E(UPBE1PBE) =  -3536.17854234     A.U. after   32 cycles

 Alpha virt. eigenvalues --    0.35882   0.36401   0.36483   0.36658   0.36940
 Alpha virt. eigenvalues --    0.37089   0.37254   0.37604   0.37836   0.38069
 Alpha virt. eigenvalues --    0.38235   0.38461   0.38690   0.39086   0.39238

  Beta  occ. eigenvalues -- -256.46240 -89.06838 -30.20764 -26.04080 -26.03890
  Beta  occ. eigenvalues --  -26.03224 -19.27435 -19.26502 -19.20402 -19.20084
  Beta  occ. eigenvalues --  -14.43186 -14.43012 -14.43005 -14.42950 -10.37576
  Beta  occ. eigenvalues --  -10.36984 -10.29374 -10.29211 -10.29206 -10.29085
  Beta  occ. eigenvalues --  -10.29068 -10.29053 -10.28940 -10.28937 -10.27372
  Beta  occ. eigenvalues --  -10.27080 -10.27027 -10.26201 -10.26187 -10.26031
  Beta  occ. eigenvalues --  -10.25841 -10.25703 -10.25568 -10.25007 -10.24743
  Beta  occ. eigenvalues --  -10.24606 -10.24558 -10.24125 -10.23526 -10.22676
  Beta  occ. eigenvalues --  -10.22326 -10.22119 -10.21789 -10.20329 -10.20024
  Beta  occ. eigenvalues --  -10.19738 -10.19631 -10.18566 -10.18366  -8.05371
  Beta  occ. eigenvalues --   -5.98965  -5.98583  -5.98178  -3.51239  -2.27222
  Beta  occ. eigenvalues --   -2.26812  -2.23837  -1.18008  -1.18006  -1.04986
  Beta  occ. eigenvalues --   -1.04572  -1.02713  -1.01812  -1.01360  -1.00077
  Beta  occ. eigenvalues --   -0.88699  -0.87095  -0.86865  -0.86532  -0.85912
  Beta  occ. eigenvalues --   -0.85675  -0.85466  -0.85103  -0.83051  -0.82157
  Beta  occ. eigenvalues --   -0.80695  -0.80575  -0.79949  -0.78221  -0.76756
  Beta  occ. eigenvalues --   -0.76475  -0.76093  -0.74064  -0.72776  -0.72390
  Beta  occ. eigenvalues --   -0.71642  -0.70556  -0.70090  -0.69181  -0.68936
  Beta  occ. eigenvalues --   -0.66609  -0.66025  -0.63666  -0.63387  -0.60461
  Beta  occ. eigenvalues --   -0.59470  -0.59040  -0.57585  -0.57023  -0.56339
  Beta  occ. eigenvalues --   -0.55897  -0.55064  -0.54729  -0.54090  -0.53697
  Beta  occ. eigenvalues --   -0.52830  -0.52338  -0.52083  -0.51804  -0.51733
  Beta  occ. eigenvalues --   -0.51189  -0.50289  -0.49835  -0.48954  -0.48744
  Beta  occ. eigenvalues --   -0.48693  -0.48568  -0.47984  -0.47673  -0.47576
  Beta  occ. eigenvalues --   -0.47520  -0.47331  -0.46959  -0.46797  -0.46462
  Beta  occ. eigenvalues --   -0.46322  -0.46102  -0.45654  -0.45336  -0.45225
  Beta  occ. eigenvalues --   -0.44986  -0.44801  -0.44774  -0.44130  -0.43895
  Beta  occ. eigenvalues --   -0.43392  -0.42867  -0.42674  -0.42554  -0.42008
  Beta  occ. eigenvalues --   -0.41840  -0.41710  -0.41410  -0.41003  -0.40394
  Beta  occ. eigenvalues --   -0.40034  -0.39756  -0.39217  -0.38964  -0.38513
  Beta  occ. eigenvalues --   -0.38096  -0.37690  -0.37443  -0.37192  -0.36921
  Beta  occ. eigenvalues --   -0.36306  -0.36035  -0.35678  -0.35389  -0.35258
  Beta  occ. eigenvalues --   -0.34116  -0.32818  -0.32399  -0.31150  -0.30383
  Beta  occ. eigenvalues --   -0.29970  -0.29763  -0.28851  -0.28417  -0.26653
  Beta  occ. eigenvalues --   -0.24062  -0.23391
  Beta virt. eigenvalues --   -0.13849  -0.13489  -0.10249  -0.09920  -0.09846
  Beta virt. eigenvalues --   -0.08056  -0.07100  -0.04119  -0.03218  -0.02899
  Beta virt. eigenvalues --   -0.02611  -0.00098   0.00831   0.01193   0.01289

 Mulliken charges and spin densities:
               1          2
     1  C   -0.343997  -0.002027
     2  S   -0.021371   0.165157
     3  H    0.169330   0.003831
     4  H    0.192951   0.004954
     5  H    0.205127  -0.001338
     6  Fe  -0.002146   2.934958
     7  C   -0.511298  -0.026602
     8  C   -0.533610   0.051292
     9  C   -0.464819   0.058532
    10  C   -0.518904  -0.027771
    11  N   -0.107764  -0.058905
    12  C    0.328665   0.039668
    13  C    0.020153  -0.010248
    14  C   -0.036094   0.035250
    15  C    0.215871  -0.025444
    16  C   -0.371974  -0.002697
    17  C   -0.386637  -0.000432
    18  C   -0.197203  -0.000035
    19  C    0.300303   0.000039
    20  O   -0.388207   0.000044
    21  O   -0.374683  -0.000003
    22  N   -0.098604  -0.022519
    23  C    0.313345  -0.038239
    24  C   -0.096262   0.131411
    25  C   -0.062374  -0.107023
    26  C    0.218680  -0.016799
    27  C   -0.355250  -0.006823
    28  C   -0.187085   0.946159
    29  C   -0.364832  -0.038070
    30  N   -0.074640  -0.023617
    31  C    0.347272  -0.056461
    32  C   -0.104392   0.228395
    33  C   -0.137211  -0.160381
    34  C    0.299666   0.068571
    35  C   -0.376642  -0.011478
    36  C   -0.107930   0.895244
    37  C   -0.355564  -0.036795
    38  N   -0.043727  -0.081370
    39  C    0.346475   0.031109
    40  C   -0.095511   0.027658
    41  C   -0.034353   0.032624
    42  C    0.290221   0.035178
    43  C   -0.368762  -0.002962
    44  C   -0.246585  -0.004703
    45  C   -0.238073   0.001963
    46  C    0.301686   0.000415
    47  O   -0.386035   0.000332
    48  O   -0.367525   0.000019
    49  H    0.165615   0.000610
    50  H    0.174037  -0.002212
    51  H    0.182505   0.000366
    52  H    0.166576   0.001128
    53  H    0.157593   0.001072
    54  H    0.149546  -0.000107
    55  H    0.157523   0.001077
    56  H    0.142102  -0.000119
    57  H    0.143072  -0.000041
    58  H    0.142204   0.000116
    59  H    0.150390  -0.000023
    60  H    0.162654   0.003494
    61  H    0.156634   0.001909
    62  H    0.142186   0.000198
    63  H    0.146855  -0.021199
    64  H    0.150711   0.040344
    65  H    0.153602   0.004835
    66  H    0.134161   0.007133
    67  H    0.168059   0.005922
    68  H    0.159999   0.005867
    69  H    0.145154   0.000746
    70  H    0.138139  -0.026797
    71  H    0.145481   0.011195
    72  H    0.126255   0.007920
    73  H    0.149151   0.024096
    74  H    0.154279   0.001031
    75  H    0.138754   0.000118
    76  H    0.158159   0.001057
    77  H    0.152556   0.000223
    78  H    0.128016   0.000377
    79  H    0.149473  -0.000028
    80  H    0.145086  -0.000012
    81  H    0.179699  -0.000378
    82  H    0.397058   0.000014
    83  H    0.397031   0.000000
 Sum of Mulliken charges =   1.00000   5.00000

 Dipole moment (field-independent basis, Debye):
    X=             -7.5046    Y=             -7.0023    Z=              3.1299  Tot=             10.7307
 Quadrupole moment (field-independent basis, Debye-Ang):
   XX=           -226.7742   YY=           -200.6169   ZZ=           -281.8181
   XY=            -30.4167   XZ=              4.6549   YZ=            -24.7257

 Normal termination of Gaussian 16 at Sat Feb 25 13:51:01 2023.
