 Gaussian 16, Revision A.03,
 Gaussian 16:  ES64L-G16RevA.03 25-Dec-2016

 ----------------------------------------------------------------------
 # PBE1PBE/def2TZVP empiricaldispersion=GD3BJ scf=maxcycle=999 geom=che
 ck pop=nbo guess=read
 ----------------------------------------------------------------------

 ----------
 4mu8_III_H
 ----------
 Structure from the checkpoint file:  "4mu8_III_H.chk"
 Charge =  1 Multiplicity = 6

                         Standard orientation:
 ---------------------------------------------------------------------
 Center     Atomic      Atomic             Coordinates (Angstroms)
 Number     Number       Type             X           Y           Z
 ---------------------------------------------------------------------
      1          6           0        2.776620   -1.125957    4.750931
      2          6           0        1.912829   -0.737753    3.594083
      3          7           0        0.536446   -0.753147    3.647472
      4          6           0        2.233614   -0.408574    2.314730
      5          6           0        0.044378   -0.451717    2.454421
      6          7           0        1.052610   -0.224535    1.630805
      7          1           0        3.767406   -1.331506    4.403092
      8          1           0        2.374372   -2.000098    5.218877
      9          1           0        0.069108   -0.955344    4.340580
     10          1           0        3.091638   -0.326361    1.965602
     11          1           0       -0.858295   -0.369969    2.244213
     12         26           0        0.836145    0.052309   -0.374355
     13          6           0       -2.600453   -0.145327   -0.323929
     14          6           0        1.042185   -3.392417   -0.507135
     15          6           0        4.259652    0.299134   -0.896191
     16          6           0        0.691990    3.372252    0.408953
     17          7           0       -0.458485   -1.536031   -0.453179
     18          6           0       -1.856131   -1.341623   -0.491846
     19          6           0       -2.436676   -2.605159   -0.705359
     20          6           0       -1.415452   -3.521177   -0.655497
     21          6           0       -0.174425   -2.830778   -0.578315
     22          6           0       -1.529160   -5.045038   -0.868816
     23          6           0       -3.947566   -2.910917   -0.745828
     24          6           0       -4.504387   -3.020962    0.653917
     25          6           0       -5.960441   -3.455007    0.690880
     26          8           0       -6.595235   -3.612457   -0.383848
     27          8           0       -6.435132   -3.643951    1.829854
     28          7           0        2.475380   -1.397317   -0.448366
     29          6           0        2.268915   -2.724588   -0.540981
     30          6           0        3.533885   -3.258879   -0.639656
     31          6           0        4.486849   -2.205743   -0.851203
     32          6           0        3.717990   -0.994780   -0.846877
     33          6           0        3.827007   -4.667654   -0.526186
     34          6           0        5.856621   -2.266395   -1.230466
     35          6           0        6.243337   -3.057289   -2.343338
     36          7           0        2.303721    1.564461   -0.288214
     37          6           0        3.591065    1.454705   -0.578278
     38          6           0        4.165880    2.738819   -0.375099
     39          6           0        3.144884    3.594761    0.019139
     40          6           0        1.949419    2.851112    0.088388
     41          6           0        5.550084    3.008445   -0.450421
     42          6           0        3.218842    4.962330    0.460999
     43          6           0        3.899085    5.976141   -0.311065
     44          7           0       -0.701619    1.359982    0.134983
     45          6           0       -0.521877    2.682717    0.336717
     46          6           0       -1.785119    3.253672    0.588134
     47          6           0       -2.748217    2.254876    0.343462
     48          6           0       -2.027383    1.089188   -0.032166
     49          6           0       -2.029220    4.620727    0.983218
     50          6           0       -4.223614    2.453961    0.320344
     51          6           0       -4.612649    2.978818   -1.066036
     52          6           0       -6.053247    3.435773   -1.243915
     53          8           0       -6.864059    3.489633   -0.280313
     54          8           0       -6.373681    3.850772   -2.407014
     55          8           0        0.688932    0.226273   -2.352285
     56          1           0        2.806297   -0.324105    5.458782
     57          1           0        0.360646   -0.670594   -2.255032
     58          1           0        0.268428    0.793268   -1.701674
     59          1           0        5.279054    0.392359   -1.207685
     60          1           0        1.076196   -4.457926   -0.415303
     61          1           0       -3.664254   -0.195076   -0.427624
     62          1           0        0.655743    4.389452    0.738938
     63          1           0        5.920639    2.706766   -1.407803
     64          1           0        5.716959    4.056975   -0.317611
     65          1           0        6.061421    2.465881    0.317080
     66          1           0        3.577079   -5.005845    0.457716
     67          1           0        3.252005   -5.210773   -1.246807
     68          1           0        4.869229   -4.830668   -0.705353
     69          1           0       -0.804387   -5.359213   -1.590548
     70          1           0       -1.351273   -5.549187    0.058055
     71          1           0       -2.510677   -5.283500   -1.221890
     72          1           0       -2.500977    4.635654    1.943489
     73          1           0       -1.099907    5.148634    1.034137
     74          1           0       -2.667679    5.091028    0.264826
     75          1           0       -4.716799    1.522637    0.505557
     76          1           0       -4.503830    3.166240    1.068032
     77          1           0       -3.973651    3.805428   -1.296899
     78          1           0       -4.422676    2.202680   -1.777668
     79          1           0       -6.536066    3.221285   -3.113397
     80          1           0       -3.920867   -3.732687    1.199676
     81          1           0       -4.418882   -2.067764    1.132459
     82          1           0       -4.106911   -3.834273   -1.262474
     83          1           0       -4.452936   -2.123977   -1.265662
     84          1           0       -6.705437   -4.492287   -0.751754
     85          1           0        3.561420    5.938222   -1.325680
     86          1           0        3.685615    6.940662    0.100067
     87          1           0        4.954098    5.800502   -0.279475
     88          1           0        2.757296    5.235693    1.386822
     89          1           0        5.384316   -3.554088   -2.743555
     90          1           0        6.674407   -2.429178   -3.094706
     91          1           0        6.962893   -3.784980   -2.030919
     92          1           0        6.591800   -1.718231   -0.679170
 ---------------------------------------------------------------------

 SCF Done:  E(UPBE1PBE) =  -3439.50943886     A.U. after    1 cycles

 Alpha virt. eigenvalues --    0.63603   0.63885   0.64453   0.64671   0.65016
 Alpha virt. eigenvalues --    0.65167   0.65424   0.66024   0.66189   0.66388
 Alpha virt. eigenvalues --    0.66866   0.67092   0.67393   0.67794   0.68183

  Beta  occ. eigenvalues -- -256.52428 -30.26467 -26.09875 -26.09673 -26.08927
  Beta  occ. eigenvalues --  -19.34994 -19.33172 -19.32206 -19.25916 -19.25679
  Beta  occ. eigenvalues --  -14.53839 -14.50183 -14.49901 -14.49425 -14.49359
  Beta  occ. eigenvalues --  -14.48864 -10.43093 -10.43045 -10.37760 -10.37259
  Beta  occ. eigenvalues --  -10.36520 -10.36516 -10.36511 -10.36353 -10.36197
  Beta  occ. eigenvalues --  -10.35893 -10.35675 -10.35651 -10.34662 -10.34003
  Beta  occ. eigenvalues --  -10.33617 -10.33433 -10.33275 -10.33135 -10.32905
  Beta  occ. eigenvalues --  -10.32880 -10.32733 -10.32720 -10.32326 -10.32219
  Beta  occ. eigenvalues --  -10.32035 -10.31916 -10.31885 -10.31870 -10.31340
  Beta  occ. eigenvalues --  -10.31327 -10.31167 -10.31054 -10.30980 -10.30074
  Beta  occ. eigenvalues --  -10.29490 -10.29445 -10.29024 -10.28930  -3.57313
  Beta  occ. eigenvalues --   -2.33239  -2.32791  -2.30194  -1.23870  -1.22367
  Beta  occ. eigenvalues --   -1.20265  -1.17712  -1.10810  -1.10340  -1.10072
  Beta  occ. eigenvalues --   -1.09908  -1.09479  -1.09012  -1.03009  -0.95785
  Beta  occ. eigenvalues --   -0.94079  -0.94011  -0.93312  -0.93001  -0.92704
  Beta  occ. eigenvalues --   -0.92401  -0.92113  -0.89707  -0.88894  -0.88072
  Beta  occ. eigenvalues --   -0.87402  -0.87195  -0.85092  -0.83397  -0.82648
  Beta  occ. eigenvalues --   -0.82505  -0.81752  -0.80005  -0.78621  -0.78233
  Beta  occ. eigenvalues --   -0.78130  -0.77550  -0.77162  -0.74993  -0.74729
  Beta  occ. eigenvalues --   -0.73419  -0.72563  -0.72070  -0.71706  -0.70945
  Beta  occ. eigenvalues --   -0.70545  -0.68755  -0.67241  -0.66062  -0.65076
  Beta  occ. eigenvalues --   -0.64299  -0.64009  -0.63596  -0.63073  -0.61539
  Beta  occ. eigenvalues --   -0.61332  -0.60786  -0.60001  -0.59662  -0.59551
  Beta  occ. eigenvalues --   -0.59032  -0.58676  -0.58500  -0.57657  -0.57521
  Beta  occ. eigenvalues --   -0.56896  -0.56687  -0.56196  -0.56030  -0.55845
  Beta  occ. eigenvalues --   -0.55483  -0.55206  -0.54848  -0.54662  -0.54422
  Beta  occ. eigenvalues --   -0.54155  -0.53953  -0.53885  -0.53566  -0.53050
  Beta  occ. eigenvalues --   -0.52956  -0.52706  -0.52601  -0.52375  -0.52267
  Beta  occ. eigenvalues --   -0.51833  -0.51795  -0.51506  -0.51286  -0.51180
  Beta  occ. eigenvalues --   -0.50936  -0.50619  -0.49905  -0.49586  -0.49312
  Beta  occ. eigenvalues --   -0.49179  -0.48962  -0.48831  -0.48634  -0.48040
  Beta  occ. eigenvalues --   -0.47918  -0.47428  -0.47258  -0.47162  -0.46981
  Beta  occ. eigenvalues --   -0.46406  -0.45934  -0.45248  -0.44932  -0.44815
  Beta  occ. eigenvalues --   -0.44133  -0.43521  -0.42767  -0.42342  -0.41983
  Beta  occ. eigenvalues --   -0.41926  -0.41083  -0.40964  -0.40183  -0.40025
  Beta  occ. eigenvalues --   -0.39619  -0.37986  -0.36380  -0.35561  -0.35179
  Beta  occ. eigenvalues --   -0.34848  -0.34504  -0.33992  -0.33524  -0.31157
  Beta  occ. eigenvalues --   -0.30899
  Beta virt. eigenvalues --   -0.20517  -0.20110  -0.17548  -0.16930  -0.14928
  Beta virt. eigenvalues --   -0.13725  -0.12165  -0.12003  -0.11248  -0.09289
  Beta virt. eigenvalues --   -0.08706  -0.08661  -0.07449  -0.06418  -0.05546

 Mulliken charges and spin densities:
               1          2
     1  C   -0.364176   0.001278
     2  C    0.213563   0.004284
     3  N   -0.165628   0.004960
     4  C   -0.259794   0.003862
     5  C    0.029469   0.012176
     6  N    0.028027   0.060207
     7  H    0.150742  -0.000017
     8  H    0.144287   0.000168
     9  H    0.174530   0.000947
    10  H    0.153193   0.000600
    11  H    0.187983  -0.000311
    12  Fe  -0.123989   3.065478
    13  C   -0.541843  -0.027781
    14  C   -0.488847   0.071534
    15  C   -0.503266   0.045585
    16  C   -0.468298  -0.033436
    17  N   -0.117390  -0.058000
    18  C    0.242519   0.033193
    19  C    0.060689  -0.019519
    20  C   -0.068484   0.037485
    21  C    0.212912  -0.032774
    22  C   -0.383209  -0.003359
    23  C   -0.267330   0.000664
    24  C   -0.239779  -0.000450
    25  C    0.293001  -0.000068
    26  O   -0.356397   0.000002
    27  O   -0.315989  -0.000015
    28  N   -0.148826  -0.046470
    29  C    0.272443  -0.053198
    30  C   -0.044562   0.205197
    31  C   -0.025733  -0.210344
    32  C    0.268807   0.024529
    33  C   -0.388396  -0.010152
    34  C   -0.202391   0.886887
    35  C   -0.351928  -0.056021
    36  N   -0.068638  -0.058204
    37  C    0.269600  -0.037463
    38  C   -0.060185   0.237283
    39  C    0.043631  -0.187974
    40  C    0.232574   0.057211
    41  C   -0.348964  -0.008619
    42  C   -0.246880   0.887326
    43  C   -0.313192  -0.063924
    44  N   -0.115537  -0.058800
    45  C    0.353358   0.043959
    46  C   -0.081858   0.012731
    47  C   -0.010681   0.016977
    48  C    0.275139   0.036441
    49  C   -0.370865  -0.001886
    50  C   -0.202835  -0.002357
    51  C   -0.291330   0.001407
    52  C    0.321677   0.000263
    53  O   -0.326615   0.000041
    54  O   -0.351881   0.000111
    55  O   -0.366878   0.092434
    56  H    0.157785   0.000101
    57  H    0.361141   0.000142
    58  H    0.327446  -0.009386
    59  H    0.152695   0.000802
    60  H    0.167215  -0.003373
    61  H    0.144288   0.001133
    62  H    0.116663   0.008126
    63  H    0.144215   0.010427
    64  H    0.114564  -0.002405
    65  H    0.150252   0.012584
    66  H    0.143606   0.009041
    67  H    0.143658   0.009303
    68  H    0.153651  -0.000653
    69  H    0.149541   0.001303
    70  H    0.154077   0.001552
    71  H    0.133031  -0.000043
    72  H    0.158730   0.001266
    73  H    0.127562  -0.000029
    74  H    0.141947   0.001034
    75  H    0.121241   0.000097
    76  H    0.142112   0.000423
    77  H    0.146484  -0.000055
    78  H    0.130091  -0.000084
    79  H    0.353105   0.000002
    80  H    0.143264   0.000002
    81  H    0.133263   0.000047
    82  H    0.103983  -0.000400
    83  H    0.132070  -0.000153
    84  H    0.363428  -0.000008
    85  H    0.144841   0.034810
    86  H    0.138067   0.001679
    87  H    0.130204   0.053872
    88  H    0.148113  -0.045467
    89  H    0.143202  -0.000274
    90  H    0.149559   0.043857
    91  H    0.143070   0.043313
    92  H    0.146283  -0.046664
 Sum of Mulliken charges =   1.00000   5.00000

 Dipole moment (field-independent basis, Debye):
    X=              8.3128    Y=             -3.0840    Z=             -0.5101  Tot=              8.8811
 Quadrupole moment (field-independent basis, Debye-Ang):
   XX=           -257.1762   YY=           -227.4015   ZZ=           -259.5749
   XY=             18.4824   XZ=             36.3010   YZ=              9.8713

 Summary of Natural Population Analysis:

                                       Natural Population
                Natural  -----------------------------------------------
    Atom  No    Charge         Core      Valence    Rydberg      Total
 -----------------------------------------------------------------------
      C    1   -0.32266      0.99969     2.31963    0.00334     3.32266
      C    2    0.06850      0.99961     1.92447    0.00742     2.93150
      N    3   -0.21093      0.99970     2.70212    0.00911     3.71093
      C    4   -0.02066      0.99945     2.01252    0.00869     3.02066
      C    5    0.11944      0.99962     1.87296    0.00798     2.88056
      N    6   -0.14278      0.99973     2.62389    0.01916     3.64278
      H    7    0.11990      0.00000     0.37962    0.00048     0.38010
      H    8    0.11409      0.00000     0.38524    0.00067     0.38591
      H    9    0.19211      0.00000     0.30701    0.00088     0.30789
      H   10    0.09899      0.00000     0.40012    0.00089     0.40101
      H   11    0.09583      0.00000     0.40315    0.00102     0.40417
     Fe   12    1.70690      8.99588     2.27292    0.02430    11.29310
      C   13   -0.12775      0.99951     2.11997    0.00828     3.12775
      C   14   -0.07844      0.99947     2.07066    0.00831     3.07844
      C   15   -0.08897      0.99949     2.08163    0.00784     3.08897
      C   16   -0.12016      0.99951     2.11279    0.00786     3.12016
      N   17   -0.23909      0.99967     2.71816    0.02126     3.73909
      C   18    0.08633      0.99947     1.90407    0.01012     2.91367
      C   19   -0.01733      0.99940     2.00831    0.00963     3.01733
      C   20    0.02202      0.99944     1.97008    0.00846     2.97798
      C   21    0.05160      0.99947     1.93791    0.01102     2.94840
      C   22   -0.32203      0.99970     2.31890    0.00343     3.32203
      C   23   -0.21251      0.99968     2.20559    0.00725     3.21251
      C   24   -0.25468      0.99963     2.24624    0.00881     3.25468
      C   25    0.38262      0.99976     1.59982    0.01780     2.61738
      O   26   -0.34403      0.99980     3.32998    0.01425     4.34403
      O   27   -0.27055      0.99989     3.25886    0.01181     4.27055
      N   28   -0.21461      0.99967     2.69280    0.02213     3.71461
      C   29    0.04859      0.99946     1.94112    0.01084     2.95141
      C   30    0.09450      0.99950     1.89745    0.00855     2.90550
      C   31   -0.11776      0.99954     2.10851    0.00971     3.11776
      C   32    0.10175      0.99950     1.88878    0.00998     2.89825
      C   33   -0.32849      0.99968     2.32197    0.00684     3.32849
      C   34    0.36121      0.99963     1.63162    0.00754     2.63879
      C   35   -0.35811      0.99970     2.35143    0.00699     3.35811
      N   36   -0.21853      0.99967     2.69593    0.02293     3.71853
      C   37    0.06264      0.99950     1.92719    0.01067     2.93736
      C   38    0.11502      0.99951     1.87730    0.00817     2.88498
      C   39   -0.12153      0.99949     2.11216    0.00988     3.12153
      C   40    0.12269      0.99949     1.86774    0.01008     2.87731
      C   41   -0.32826      0.99966     2.32141    0.00720     3.32826
      C   42    0.37029      0.99967     1.62294    0.00710     2.62971
      C   43   -0.35827      0.99971     2.35203    0.00653     3.35827
      N   44   -0.23483      0.99966     2.71366    0.02150     3.73483
      C   45    0.09270      0.99949     1.89666    0.01115     2.90730
      C   46    0.00512      0.99952     1.98698    0.00838     2.99488
      C   47    0.01049      0.99951     1.98118    0.00882     2.98951
      C   48    0.08229      0.99949     1.90765    0.01056     2.91771
      C   49   -0.32232      0.99968     2.31560    0.00704     3.32232
      C   50   -0.21733      0.99966     2.20992    0.00775     3.21733
      C   51   -0.25065      0.99962     2.24280    0.00824     3.25065
      C   52    0.38243      0.99976     1.60113    0.01669     2.61757
      O   53   -0.27157      0.99990     3.26027    0.01140     4.27157
      O   54   -0.34075      0.99981     3.32639    0.01455     4.34075
      O   55   -0.32037      0.99993     3.30355    0.01689     4.32037
      H   56    0.11655      0.00000     0.38276    0.00068     0.38345
      H   57    0.25993      0.00000     0.23876    0.00132     0.24007
      H   58    0.23489      0.00000     0.26274    0.00236     0.26511
      H   59    0.11826      0.00000     0.38071    0.00103     0.38174
      H   60    0.11664      0.00000     0.38234    0.00102     0.38336
      H   61    0.11763      0.00000     0.38127    0.00110     0.38237
      H   62    0.11822      0.00000     0.38102    0.00075     0.38178
      H   63    0.12124      0.00000     0.37816    0.00060     0.37876
      H   64    0.11520      0.00000     0.38414    0.00066     0.38480
      H   65    0.12209      0.00000     0.37722    0.00069     0.37791
      H   66    0.11865      0.00000     0.38064    0.00070     0.38135
      H   67    0.11860      0.00000     0.38077    0.00062     0.38140
      H   68    0.11617      0.00000     0.38326    0.00057     0.38383
      H   69    0.11503      0.00000     0.38431    0.00066     0.38497
      H   70    0.11507      0.00000     0.38425    0.00068     0.38493
      H   71    0.11172      0.00000     0.38756    0.00072     0.38828
      H   72    0.12077      0.00000     0.37852    0.00071     0.37923
      H   73    0.11056      0.00000     0.38895    0.00048     0.38944
      H   74    0.11691      0.00000     0.38230    0.00078     0.38309
      H   75    0.11090      0.00000     0.38818    0.00093     0.38910
      H   76    0.12362      0.00000     0.37564    0.00075     0.37638
      H   77    0.11763      0.00000     0.38163    0.00074     0.38237
      H   78    0.10970      0.00000     0.38955    0.00075     0.39030
      H   79    0.25699      0.00000     0.24190    0.00110     0.24301
      H   80    0.12026      0.00000     0.37913    0.00061     0.37974
      H   81    0.11773      0.00000     0.38165    0.00062     0.38227
      H   82    0.10932      0.00000     0.38982    0.00086     0.39068
      H   83    0.11086      0.00000     0.38840    0.00074     0.38914
      H   84    0.26196      0.00000     0.23688    0.00116     0.23804
      H   85    0.13168      0.00000     0.36783    0.00049     0.36832
      H   86    0.11689      0.00000     0.38268    0.00043     0.38311
      H   87    0.13596      0.00000     0.36343    0.00061     0.36404
      H   88    0.08407      0.00000     0.41516    0.00078     0.41593
      H   89    0.11178      0.00000     0.38763    0.00059     0.38822
      H   90    0.14181      0.00000     0.35777    0.00043     0.35819
      H   91    0.13773      0.00000     0.36175    0.00051     0.36227
      H   92    0.08488      0.00000     0.41431    0.00081     0.41512
 =======================================================================
   * Total *    3.00000     57.97698   127.44581    0.57721   186.00000

 Normal termination of Gaussian 16 at Mon Nov 14 10:18:39 2022.
