 Gaussian 16, Revision A.03,
 Gaussian 16:  ES64L-G16RevA.03 25-Dec-2016

 ----------------------------------------------------------------------
 # PBE1PBE/def2TZVP empiricaldispersion=GD3BJ scf=maxcycle=999 geom=che
 ck pop=nbo
 ----------------------------------------------------------------------

 ---------
 4mu8_II_Q
 ---------
 Structure from the checkpoint file:  "4mu8_II_Q.chk"
 Charge =  0 Multiplicity = 5

                         Standard orientation:
 ---------------------------------------------------------------------
 Center     Atomic      Atomic             Coordinates (Angstroms)
 Number     Number       Type             X           Y           Z
 ---------------------------------------------------------------------
      1          6           0        2.776620   -1.125957    4.750931
      2          6           0        1.912829   -0.737753    3.594083
      3          7           0        0.536446   -0.753147    3.647472
      4          6           0        2.233614   -0.408574    2.314730
      5          6           0        0.044378   -0.451717    2.454421
      6          7           0        1.052610   -0.224535    1.630805
      7          1           0        3.767406   -1.331506    4.403092
      8          1           0        2.374372   -2.000098    5.218877
      9          1           0        0.069108   -0.955344    4.340580
     10          1           0        3.091638   -0.326361    1.965602
     11          1           0       -0.858295   -0.369969    2.244213
     12         26           0        0.836145    0.052309   -0.374355
     13          6           0       -2.600453   -0.145327   -0.323929
     14          6           0        1.042185   -3.392417   -0.507135
     15          6           0        4.259652    0.299134   -0.896191
     16          6           0        0.691990    3.372252    0.408953
     17          7           0       -0.458485   -1.536031   -0.453179
     18          6           0       -1.856131   -1.341623   -0.491846
     19          6           0       -2.436676   -2.605159   -0.705359
     20          6           0       -1.415452   -3.521177   -0.655497
     21          6           0       -0.174425   -2.830778   -0.578315
     22          6           0       -1.529160   -5.045038   -0.868816
     23          6           0       -3.947566   -2.910917   -0.745828
     24          6           0       -4.504387   -3.020962    0.653917
     25          6           0       -5.960441   -3.455007    0.690880
     26          8           0       -6.595235   -3.612457   -0.383848
     27          8           0       -6.435132   -3.643951    1.829854
     28          7           0        2.475380   -1.397317   -0.448366
     29          6           0        2.268915   -2.724588   -0.540981
     30          6           0        3.533885   -3.258879   -0.639656
     31          6           0        4.486849   -2.205743   -0.851203
     32          6           0        3.717990   -0.994780   -0.846877
     33          6           0        3.827007   -4.667654   -0.526186
     34          6           0        5.856621   -2.266395   -1.230466
     35          6           0        6.243337   -3.057289   -2.343338
     36          7           0        2.303721    1.564461   -0.288214
     37          6           0        3.591065    1.454705   -0.578278
     38          6           0        4.165880    2.738819   -0.375099
     39          6           0        3.144884    3.594761    0.019139
     40          6           0        1.949419    2.851112    0.088388
     41          6           0        5.550084    3.008445   -0.450421
     42          6           0        3.218842    4.962330    0.460999
     43          6           0        3.899085    5.976141   -0.311065
     44          7           0       -0.701619    1.359982    0.134983
     45          6           0       -0.521877    2.682717    0.336717
     46          6           0       -1.785119    3.253672    0.588134
     47          6           0       -2.748217    2.254876    0.343462
     48          6           0       -2.027383    1.089188   -0.032166
     49          6           0       -2.029220    4.620727    0.983218
     50          6           0       -4.223614    2.453961    0.320344
     51          6           0       -4.612649    2.978818   -1.066036
     52          6           0       -6.053247    3.435773   -1.243915
     53          8           0       -6.864059    3.489633   -0.280313
     54          8           0       -6.373681    3.850772   -2.407014
     55          8           0        0.688932    0.226273   -2.352285
     56          1           0        2.806297   -0.324105    5.458782
     57          1           0        0.360646   -0.670594   -2.255032
     58          1           0        0.268428    0.793268   -1.701674
     59          1           0        5.279054    0.392359   -1.207685
     60          1           0        1.076196   -4.457926   -0.415303
     61          1           0       -3.664254   -0.195076   -0.427624
     62          1           0        0.655743    4.389452    0.738938
     63          1           0        5.920639    2.706766   -1.407803
     64          1           0        5.716959    4.056975   -0.317611
     65          1           0        6.061421    2.465881    0.317080
     66          1           0        3.577079   -5.005845    0.457716
     67          1           0        3.252005   -5.210773   -1.246807
     68          1           0        4.869229   -4.830668   -0.705353
     69          1           0       -0.804387   -5.359213   -1.590548
     70          1           0       -1.351273   -5.549187    0.058055
     71          1           0       -2.510677   -5.283500   -1.221890
     72          1           0       -2.500977    4.635654    1.943489
     73          1           0       -1.099907    5.148634    1.034137
     74          1           0       -2.667679    5.091028    0.264826
     75          1           0       -4.716799    1.522637    0.505557
     76          1           0       -4.503830    3.166240    1.068032
     77          1           0       -3.973651    3.805428   -1.296899
     78          1           0       -4.422676    2.202680   -1.777668
     79          1           0       -6.536066    3.221285   -3.113397
     80          1           0       -3.920867   -3.732687    1.199676
     81          1           0       -4.418882   -2.067764    1.132459
     82          1           0       -4.106911   -3.834273   -1.262474
     83          1           0       -4.452936   -2.123977   -1.265662
     84          1           0       -6.705437   -4.492287   -0.751754
     85          1           0        3.561420    5.938222   -1.325680
     86          1           0        3.685615    6.940662    0.100067
     87          1           0        4.954098    5.800502   -0.279475
     88          1           0        2.757296    5.235693    1.386822
     89          1           0        5.384316   -3.554088   -2.743555
     90          1           0        6.674407   -2.429178   -3.094706
     91          1           0        6.962893   -3.784980   -2.030919
     92          1           0        6.591800   -1.718231   -0.679170
 ---------------------------------------------------------------------

 SCF Done:  E(UPBE1PBE) =  -3439.68399991     A.U. after  121 cycles

 Alpha virt. eigenvalues --    0.73652   0.74380   0.74519   0.75099   0.75169
 Alpha virt. eigenvalues --    0.75352   0.75690   0.76090   0.76484   0.76748
 Alpha virt. eigenvalues --    0.76951   0.77397   0.77913   0.78013   0.78147

  Beta  occ. eigenvalues -- -256.30586 -30.04967 -25.89689 -25.87751 -25.86236
  Beta  occ. eigenvalues --  -19.26268 -19.25303 -19.20303 -19.18722 -19.18620
  Beta  occ. eigenvalues --  -14.43145 -14.37742 -14.37420 -14.36549 -14.35961
  Beta  occ. eigenvalues --  -14.34312 -10.35829 -10.35737 -10.26363 -10.25974
  Beta  occ. eigenvalues --  -10.25684 -10.24640 -10.24549 -10.24385 -10.24286
  Beta  occ. eigenvalues --  -10.24209 -10.23962 -10.23641 -10.23437 -10.23436
  Beta  occ. eigenvalues --  -10.23262 -10.23091 -10.23085 -10.22738 -10.22646
  Beta  occ. eigenvalues --  -10.22556 -10.22314 -10.22084 -10.21893 -10.21883
  Beta  occ. eigenvalues --  -10.21838 -10.21621 -10.21508 -10.21503 -10.21393
  Beta  occ. eigenvalues --  -10.21111 -10.21092 -10.20802 -10.20717 -10.20604
  Beta  occ. eigenvalues --  -10.20386 -10.20122 -10.20031 -10.19973  -3.38291
  Beta  occ. eigenvalues --   -2.16630  -2.13522  -2.10359  -1.16929  -1.15412
  Beta  occ. eigenvalues --   -1.06848  -1.05603  -1.03335  -1.02351  -0.98653
  Beta  occ. eigenvalues --   -0.98064  -0.97540  -0.96554  -0.91855  -0.84872
  Beta  occ. eigenvalues --   -0.84033  -0.83686  -0.82646  -0.82047  -0.81985
  Beta  occ. eigenvalues --   -0.81818  -0.81506  -0.79660  -0.79218  -0.78101
  Beta  occ. eigenvalues --   -0.77363  -0.76045  -0.74815  -0.73448  -0.72962
  Beta  occ. eigenvalues --   -0.72402  -0.71282  -0.70046  -0.69303  -0.69096
  Beta  occ. eigenvalues --   -0.67393  -0.66925  -0.66589  -0.65913  -0.65044
  Beta  occ. eigenvalues --   -0.64211  -0.62131  -0.61547  -0.59487  -0.59245
  Beta  occ. eigenvalues --   -0.58083  -0.57389  -0.56515  -0.55163  -0.54438
  Beta  occ. eigenvalues --   -0.53833  -0.53514  -0.53122  -0.52893  -0.52625
  Beta  occ. eigenvalues --   -0.51946  -0.51263  -0.50588  -0.49643  -0.49256
  Beta  occ. eigenvalues --   -0.49071  -0.48872  -0.48717  -0.48154  -0.47633
  Beta  occ. eigenvalues --   -0.46723  -0.46491  -0.46242  -0.45852  -0.45730
  Beta  occ. eigenvalues --   -0.45647  -0.45473  -0.45099  -0.44916  -0.44525
  Beta  occ. eigenvalues --   -0.44326  -0.44032  -0.43691  -0.43623  -0.43279
  Beta  occ. eigenvalues --   -0.43178  -0.42819  -0.42746  -0.42458  -0.42242
  Beta  occ. eigenvalues --   -0.41989  -0.41642  -0.41140  -0.41039  -0.40947
  Beta  occ. eigenvalues --   -0.40657  -0.40162  -0.39728  -0.39677  -0.39617
  Beta  occ. eigenvalues --   -0.39245  -0.39181  -0.38929  -0.38323  -0.38051
  Beta  occ. eigenvalues --   -0.37662  -0.37384  -0.36606  -0.36525  -0.36273
  Beta  occ. eigenvalues --   -0.35560  -0.35452  -0.35006  -0.34854  -0.34611
  Beta  occ. eigenvalues --   -0.34369  -0.33878  -0.33592  -0.33126  -0.32405
  Beta  occ. eigenvalues --   -0.31666  -0.30097  -0.29491  -0.28993  -0.28566
  Beta  occ. eigenvalues --   -0.28206  -0.27975  -0.26758  -0.25107  -0.24044
  Beta  occ. eigenvalues --   -0.24005  -0.22899  -0.22008  -0.19922  -0.19574
  Beta  occ. eigenvalues --   -0.18433  -0.17201
  Beta virt. eigenvalues --   -0.08505  -0.08046  -0.04805  -0.03751  -0.02213
  Beta virt. eigenvalues --   -0.01481  -0.00877   0.00289   0.01265   0.02100
  Beta virt. eigenvalues --    0.02201   0.02704   0.03773   0.04183   0.04354

 Mulliken charges and spin densities:
               1          2
     1  C   -0.378932   0.000354
     2  C    0.222813   0.001658
     3  N   -0.185766   0.001016
     4  C   -0.262326   0.000594
     5  C    0.017799   0.004186
     6  N    0.031689   0.009485
     7  H    0.146138   0.000003
     8  H    0.129498  -0.000071
     9  H    0.158990   0.001223
    10  H    0.142679   0.000828
    11  H    0.176837   0.000364
    12  Fe  -0.084415   2.010826
    13  C   -0.565681  -0.035295
    14  C   -0.513108   0.056302
    15  C   -0.527375   0.048621
    16  C   -0.487223  -0.022607
    17  N   -0.148700  -0.039951
    18  C    0.236352   0.023318
    19  C    0.055973  -0.014539
    20  C   -0.072050   0.018826
    21  C    0.214364  -0.023699
    22  C   -0.395203  -0.001988
    23  C   -0.274001   0.001210
    24  C   -0.237899  -0.000574
    25  C    0.292050   0.000017
    26  O   -0.358276   0.000004
    27  O   -0.331175  -0.000038
    28  N   -0.190779   0.100632
    29  C    0.263274  -0.053648
    30  C   -0.041324   0.228636
    31  C   -0.027341  -0.239978
    32  C    0.264868   0.016901
    33  C   -0.397955  -0.011576
    34  C   -0.227525   0.916736
    35  C   -0.337685  -0.058951
    36  N   -0.099088  -0.014484
    37  C    0.267823  -0.044672
    38  C   -0.066113   0.237317
    39  C    0.045793  -0.208630
    40  C    0.222138   0.034788
    41  C   -0.358959  -0.009841
    42  C   -0.266899   0.918906
    43  C   -0.302559  -0.067044
    44  N   -0.159190   0.013082
    45  C    0.354066   0.014843
    46  C   -0.083583   0.014251
    47  C   -0.022041  -0.002986
    48  C    0.275008   0.029033
    49  C   -0.381922  -0.000977
    50  C   -0.216888   0.000419
    51  C   -0.291126   0.000206
    52  C    0.320129   0.000130
    53  O   -0.340138  -0.000014
    54  O   -0.359171   0.000024
    55  O   -0.426087   0.025048
    56  H    0.142430   0.000142
    57  H    0.344209   0.000075
    58  H    0.332797  -0.007967
    59  H    0.128402   0.000791
    60  H    0.142012  -0.003016
    61  H    0.121539   0.001682
    62  H    0.095936   0.007476
    63  H    0.132187   0.009743
    64  H    0.102604  -0.001922
    65  H    0.136482   0.011735
    66  H    0.129150   0.009748
    67  H    0.130539   0.009700
    68  H    0.138376   0.000505
    69  H    0.140810   0.000679
    70  H    0.140776   0.000634
    71  H    0.116253   0.000054
    72  H    0.140868   0.000672
    73  H    0.119929   0.000122
    74  H    0.123264   0.001195
    75  H    0.113178  -0.000082
    76  H    0.127013  -0.000070
    77  H    0.145315  -0.000044
    78  H    0.130812  -0.000010
    79  H    0.348058   0.000002
    80  H    0.139280  -0.000002
    81  H    0.137330   0.000081
    82  H    0.088787  -0.000296
    83  H    0.124389  -0.000233
    84  H    0.355998  -0.000021
    85  H    0.134961   0.036160
    86  H    0.118177   0.002014
    87  H    0.115047   0.053437
    88  H    0.129812  -0.047668
    89  H    0.139010  -0.000230
    90  H    0.131492   0.045108
    91  H    0.119699   0.041163
    92  H    0.123300  -0.049583
 Sum of Mulliken charges =  -0.00000   4.00000

 Dipole moment (field-independent basis, Debye):
    X=              4.0925    Y=             -3.3814    Z=             -0.0090  Tot=              5.3087
 Quadrupole moment (field-independent basis, Debye-Ang):
   XX=           -324.4487   YY=           -281.0967   ZZ=           -279.0742
   XY=             20.0277   XZ=             39.5101   YZ=              6.7298

 Summary of Natural Population Analysis:

                                       Natural Population
                Natural  -----------------------------------------------
    Atom  No    Charge         Core      Valence    Rydberg      Total
 -----------------------------------------------------------------------
      C    1   -0.32101      0.99970     2.31795    0.00337     3.32101
      C    2    0.05416      0.99961     1.93848    0.00775     2.94584
      N    3   -0.22158      0.99970     2.71238    0.00950     3.72158
      C    4   -0.02022      0.99946     2.01165    0.00911     3.02022
      C    5    0.10469      0.99964     1.88687    0.00880     2.89531
      N    6   -0.16508      0.99974     2.64219    0.02315     3.66508
      H    7    0.11710      0.00000     0.38240    0.00050     0.38290
      H    8    0.10849      0.00000     0.39075    0.00076     0.39151
      H    9    0.18754      0.00000     0.31154    0.00092     0.31246
      H   10    0.09708      0.00000     0.40202    0.00091     0.40292
      H   11    0.09435      0.00000     0.40463    0.00102     0.40565
     Fe   12    1.16385      8.99555     2.81874    0.02186    11.83615
      C   13   -0.13693      0.99951     2.12904    0.00838     3.13693
      C   14   -0.08797      0.99947     2.08015    0.00835     3.08797
      C   15   -0.08970      0.99949     2.08238    0.00782     3.08970
      C   16   -0.11460      0.99951     2.10762    0.00747     3.11460
      N   17   -0.23914      0.99968     2.71859    0.02086     3.73914
      C   18    0.07642      0.99948     1.91337    0.01073     2.92358
      C   19   -0.02716      0.99939     2.01792    0.00984     3.02716
      C   20    0.00252      0.99944     1.98918    0.00885     2.99748
      C   21    0.05151      0.99947     1.93775    0.01126     2.94849
      C   22   -0.32080      0.99970     2.31761    0.00348     3.32080
      C   23   -0.21127      0.99968     2.20416    0.00744     3.21127
      C   24   -0.25588      0.99963     2.24730    0.00895     3.25588
      C   25    0.38486      0.99975     1.59740    0.01799     2.61514
      O   26   -0.34542      0.99980     3.33131    0.01431     4.34542
      O   27   -0.27921      0.99989     3.26754    0.01178     4.27921
      N   28   -0.16287      0.99968     2.64128    0.02190     3.66287
      C   29    0.04268      0.99947     1.94691    0.01095     2.95732
      C   30    0.09665      0.99949     1.89488    0.00897     2.90335
      C   31   -0.13527      0.99954     2.12560    0.01012     3.13527
      C   32    0.09277      0.99951     1.89718    0.01055     2.90723
      C   33   -0.32676      0.99968     2.32023    0.00684     3.32676
      C   34    0.35227      0.99963     1.64009    0.00800     2.64773
      C   35   -0.35679      0.99970     2.35009    0.00700     3.35679
      N   36   -0.20483      0.99968     2.68300    0.02216     3.70483
      C   37    0.05433      0.99951     1.93521    0.01094     2.94567
      C   38    0.10073      0.99952     1.89114    0.00862     2.89927
      C   39   -0.12881      0.99949     2.11924    0.01008     3.12881
      C   40    0.10047      0.99950     1.88985    0.01018     2.89953
      C   41   -0.32509      0.99966     2.31825    0.00718     3.32509
      C   42    0.36204      0.99967     1.63083    0.00745     2.63796
      C   43   -0.35695      0.99971     2.35078    0.00646     3.35695
      N   44   -0.22365      0.99968     2.70171    0.02226     3.72365
      C   45    0.07580      0.99950     1.91350    0.01120     2.92420
      C   46   -0.00715      0.99952     1.99895    0.00867     3.00715
      C   47   -0.01805      0.99951     2.00951    0.00903     3.01805
      C   48    0.07653      0.99950     1.91322    0.01074     2.92347
      C   49   -0.31982      0.99968     2.31310    0.00703     3.31982
      C   50   -0.21280      0.99966     2.20582    0.00732     3.21280
      C   51   -0.25295      0.99962     2.24500    0.00833     3.25295
      C   52    0.38392      0.99976     1.59946    0.01686     2.61608
      O   53   -0.27860      0.99990     3.26734    0.01136     4.27860
      O   54   -0.34459      0.99981     3.33034    0.01444     4.34459
      O   55   -0.39605      0.99993     3.37840    0.01773     4.39605
      H   56    0.11031      0.00000     0.38891    0.00078     0.38969
      H   57    0.25176      0.00000     0.24648    0.00176     0.24824
      H   58    0.24048      0.00000     0.25735    0.00216     0.25952
      H   59    0.11054      0.00000     0.38837    0.00108     0.38946
      H   60    0.10869      0.00000     0.39026    0.00105     0.39131
      H   61    0.10933      0.00000     0.38956    0.00111     0.39067
      H   62    0.10996      0.00000     0.38863    0.00142     0.39004
      H   63    0.11606      0.00000     0.38327    0.00068     0.38394
      H   64    0.10999      0.00000     0.38930    0.00071     0.39001
      H   65    0.11670      0.00000     0.38251    0.00080     0.38330
      H   66    0.11374      0.00000     0.38546    0.00080     0.38626
      H   67    0.11398      0.00000     0.38531    0.00071     0.38602
      H   68    0.11112      0.00000     0.38823    0.00065     0.38888
      H   69    0.11142      0.00000     0.38783    0.00075     0.38858
      H   70    0.10937      0.00000     0.38985    0.00078     0.39063
      H   71    0.10588      0.00000     0.39333    0.00079     0.39412
      H   72    0.11369      0.00000     0.38552    0.00079     0.38631
      H   73    0.10874      0.00000     0.39078    0.00047     0.39126
      H   74    0.10970      0.00000     0.38939    0.00091     0.39030
      H   75    0.10766      0.00000     0.39136    0.00098     0.39234
      H   76    0.11630      0.00000     0.38262    0.00108     0.38370
      H   77    0.11829      0.00000     0.38095    0.00076     0.38171
      H   78    0.11074      0.00000     0.38849    0.00077     0.38926
      H   79    0.25528      0.00000     0.24357    0.00115     0.24472
      H   80    0.12005      0.00000     0.37931    0.00064     0.37995
      H   81    0.12008      0.00000     0.37927    0.00066     0.37992
      H   82    0.10413      0.00000     0.39497    0.00090     0.39587
      H   83    0.10833      0.00000     0.39089    0.00078     0.39167
      H   84    0.25971      0.00000     0.23904    0.00124     0.24029
      H   85    0.12849      0.00000     0.37100    0.00051     0.37151
      H   86    0.11044      0.00000     0.38908    0.00049     0.38956
      H   87    0.13107      0.00000     0.36826    0.00067     0.36893
      H   88    0.07957      0.00000     0.41960    0.00083     0.42043
      H   89    0.11126      0.00000     0.38810    0.00064     0.38874
      H   90    0.13544      0.00000     0.36410    0.00046     0.36456
      H   91    0.12895      0.00000     0.37044    0.00061     0.37105
      H   92    0.07898      0.00000     0.42009    0.00092     0.42102
 =======================================================================
   * Total *    2.00000     57.97681   128.43336    0.58983   187.00000

 Normal termination of Gaussian 16 at Sat Sep 10 10:10:41 2022.
