 Gaussian 16, Revision A.03,

 ----------------------------------------------------------------------
 # PBE1PBE/def2TZVP scf=maxcycle=999 empiricaldispersion=GD3BJ int=(gri
 d=ultrafine) geom=check pop=nbo
 ----------------------------------------------------------------------

 ----------
 7aba_III_D
 ----------
 Structure from the checkpoint file:  "7aba_III_D.chk"
 Charge =  1 Multiplicity = 2

 SCF Done:  E(UPBE1PBE) =  -3536.06595638     A.U. after  208 cycles

 Summary of Natural Population Analysis:

                                       Natural Population
                Natural  -----------------------------------------------
    Atom  No    Charge         Core      Valence    Rydberg      Total
 -----------------------------------------------------------------------
      C    1   -0.37303      0.99964     2.36603    0.00736     3.37303
      S    2    0.10233      4.99948     2.87447    0.02372     7.89767
      H    3    0.12264      0.00000     0.37666    0.00070     0.37736
      H    4    0.12115      0.00000     0.37832    0.00053     0.37885
     Fe    5    1.12258      8.99597     2.86779    0.01366    11.87742
      C    6   -0.14271      0.99948     2.13479    0.00844     3.14271
      C    7   -0.15155      0.99949     2.14413    0.00793     3.15155
      C    8   -0.14365      0.99949     2.13517    0.00900     3.14365
      C    9   -0.12384      0.99948     2.11655    0.00780     3.12384
      N   10   -0.27371      0.99970     2.75446    0.01955     3.77371
      C   11    0.09295      0.99953     1.89723    0.01029     2.90705
      C   12    0.00222      0.99939     1.98931    0.00908     2.99778
      C   13    0.00149      0.99939     1.99130    0.00782     2.99851
      C   14    0.09310      0.99954     1.89690    0.01046     2.90690
      C   15   -0.30428      0.99958     2.30150    0.00320     3.30428
      C   16   -0.19077      0.99953     2.18447    0.00677     3.19077
      C   17   -0.24842      0.99950     2.24106    0.00787     3.24842
      C   18    0.38281      0.99977     1.60072    0.01670     2.61719
      O   19   -0.30949      0.99981     3.29442    0.01525     4.30949
      O   20   -0.28990      0.99990     3.27830    0.01169     4.28990
      N   21   -0.28030      0.99970     2.75701    0.02359     3.78030
      C   22    0.09678      0.99955     1.89290    0.01077     2.90322
      C   23   -0.03050      0.99938     2.02319    0.00793     3.03050
      C   24   -0.01543      0.99938     2.00655    0.00950     3.01543
      C   25    0.08142      0.99955     1.90792    0.01110     2.91858
      C   26   -0.29726      0.99955     2.29430    0.00341     3.29726
      C   27   -0.49868      0.99960     2.49056    0.00852     3.49868
      C   28   -0.30943      0.99958     2.30601    0.00385     3.30943
      N   29   -0.26707      0.99969     2.74782    0.01956     3.76707
      C   30    0.09340      0.99956     1.89653    0.01052     2.90660
      C   31    0.02008      0.99938     1.97287    0.00767     2.97992
      C   32   -0.05266      0.99937     2.04450    0.00878     3.05266
      C   33    0.09916      0.99954     1.89123    0.01007     2.90084
      C   34   -0.30069      0.99956     2.29786    0.00327     3.30069
      C   35    0.47196      0.99911     1.52423    0.00469     2.52804
      C   36   -0.33228      0.99957     2.32969    0.00302     3.33228
      N   37   -0.29835      0.99970     2.77510    0.02354     3.79835
      C   38    0.07627      0.99950     1.91436    0.00988     2.92373
      C   39    0.01881      0.99959     1.97420    0.00740     2.98119
      C   40    0.00293      0.99959     1.98936    0.00813     2.99707
      C   41    0.07946      0.99950     1.91087    0.01018     2.92054
      C   42   -0.30653      0.99957     2.30390    0.00306     3.30653
      C   43   -0.19573      0.99953     2.18998    0.00621     3.19573
      C   44   -0.24568      0.99951     2.23824    0.00793     3.24568
      C   45    0.38222      0.99978     1.60084    0.01717     2.61778
      O   46   -0.30748      0.99981     3.29229    0.01537     4.30748
      O   47   -0.29087      0.99989     3.27879    0.01219     4.29087
      H   48    0.11057      0.00000     0.38844    0.00099     0.38943
      H   49    0.10977      0.00000     0.38889    0.00134     0.39023
      H   50    0.11410      0.00000     0.38490    0.00100     0.38590
      H   51    0.11171      0.00000     0.38709    0.00120     0.38829
      H   52    0.10856      0.00000     0.39080    0.00065     0.39144
      H   53    0.10971      0.00000     0.38967    0.00062     0.39029
      H   54    0.10828      0.00000     0.39109    0.00064     0.39172
      H   55    0.11327      0.00000     0.38607    0.00066     0.38673
      H   56    0.10584      0.00000     0.39321    0.00095     0.39416
      H   57    0.10568      0.00000     0.39363    0.00069     0.39432
      H   58    0.10704      0.00000     0.39228    0.00068     0.39296
      H   59    0.10992      0.00000     0.38938    0.00070     0.39008
      H   60    0.10777      0.00000     0.39137    0.00086     0.39223
      H   61    0.10230      0.00000     0.39716    0.00054     0.39770
      H   62    0.08665      0.00000     0.41233    0.00102     0.41335
      H   63    0.09942      0.00000     0.39991    0.00068     0.40058
      H   64    0.09579      0.00000     0.40329    0.00092     0.40421
      H   65    0.10034      0.00000     0.39893    0.00073     0.39966
      H   66    0.11068      0.00000     0.38866    0.00067     0.38932
      H   67    0.10887      0.00000     0.39042    0.00071     0.39113
      H   68    0.10368      0.00000     0.39575    0.00057     0.39632
      H   69    0.06969      0.00000     0.42923    0.00108     0.43031
      H   70    0.12265      0.00000     0.37686    0.00049     0.37735
      H   71    0.10575      0.00000     0.39360    0.00065     0.39425
      H   72    0.11100      0.00000     0.38849    0.00051     0.38900
      H   73    0.10935      0.00000     0.38999    0.00066     0.39065
      H   74    0.10515      0.00000     0.39430    0.00055     0.39485
      H   75    0.11303      0.00000     0.38634    0.00063     0.38697
      H   76    0.10934      0.00000     0.38977    0.00089     0.39066
      H   77    0.11088      0.00000     0.38803    0.00109     0.38912
      H   78    0.10691      0.00000     0.39247    0.00062     0.39309
      H   79    0.10139      0.00000     0.39783    0.00079     0.39861
      H   80    0.12699      0.00000     0.37254    0.00047     0.37301
      H   81    0.09399      0.00000     0.40405    0.00196     0.40601
      H   82    0.24974      0.00000     0.24928    0.00098     0.25026
      H   83    0.25074      0.00000     0.24828    0.00098     0.24926
 =======================================================================
   * Total *    1.00000     56.97669   116.52898    0.49433   174.00000

 Normal termination of Gaussian 16 at Thu Feb  9 20:06:24 2023.
 Gaussian 16:  ES64L-G16RevA.03 25-Dec-2016

 ----------------------------------------------------------------------
 # PBE1PBE/def2TZVP empiricaldispersion=GD3BJ int=(grid=ultrafine) geom
 =check guess=read scrf=(smd,solvent=Chloroform)
 ----------------------------------------------------------------------

 ---------------
 7aba_III_D_solv
 ---------------
 Structure from the checkpoint file:  "7aba_III_D.chk"
 Charge =  1 Multiplicity = 2

                         Standard orientation:
 ---------------------------------------------------------------------
 Center     Atomic      Atomic             Coordinates (Angstroms)
 Number     Number       Type             X           Y           Z
 ---------------------------------------------------------------------
      1          6           0       -0.118224   -0.702271    2.897958
      2         16           0       -1.406411    0.228413    2.096209
      3          1           0        0.177730   -1.516147    2.269533
      4          1           0       -0.481049   -1.084367    3.829226
      5         26           0       -1.025748   -0.040943   -0.247034
      6          6           0        2.415686    0.050262   -0.145902
      7          6           0       -0.897602   -3.460436   -0.147775
      8          6           0       -4.454013   -0.144907   -0.306964
      9          6           0       -1.161091    3.352786   -0.723413
     10          7           0        0.484626   -1.446552   -0.196339
     11          6           0        1.835479   -1.182458   -0.072886
     12          6           0        2.534139   -2.436902    0.129932
     13          6           0        1.599721   -3.410852    0.131552
     14          6           0        0.306234   -2.803567   -0.072867
     15          6           0        1.824806   -4.931441    0.311133
     16          6           0        4.069998   -2.580711    0.322960
     17          6           0        4.772627   -2.709160   -1.025454
     18          6           0        6.252100   -2.926202   -0.847213
     19          8           0        6.968333   -2.919073   -1.882574
     20          8           0        6.715372   -3.075524    0.316117
     21          7           0       -2.407834   -1.517475   -0.264848
     22          6           0       -2.139322   -2.869890   -0.196899
     23          6           0       -3.402096   -3.579010   -0.189154
     24          6           0       -4.386460   -2.658509   -0.201824
     25          6           0       -3.774892   -1.342379   -0.264460
     26          6           0       -3.512439   -5.119045   -0.123869
     27          6           0       -5.916593   -2.849942   -0.245842
     28          6           0       -6.480411   -3.950701    0.649039
     29          7           0       -2.541036    1.355100   -0.519039
     30          6           0       -3.885439    1.104613   -0.403792
     31          6           0       -4.589055    2.372673   -0.444726
     32          6           0       -3.662313    3.350459   -0.536172
     33          6           0       -2.366241    2.714922   -0.592921
     34          6           0       -6.120734    2.512013   -0.321897
     35          6           0       -3.860200    4.880278   -0.613556
     36          6           0       -4.829926    5.365658    0.473946
     37          7           0        0.387365    1.435738   -0.406850
     38          6           0        0.081976    2.777110   -0.616960
     39          6           0        1.310348    3.522519   -0.726610
     40          6           0        2.423512    2.501990   -0.530676
     41          6           0        1.760134    1.235653   -0.349188
     42          6           0        1.446162    5.039801   -0.960891
     43          6           0        3.946992    2.754695   -0.559332
     44          6           0        4.423574    2.967774    0.872489
     45          6           0        5.929985    3.117838    0.910109
     46          8           0        6.446736    3.613072    1.939847
     47          8           0        6.595460    2.736606   -0.075413
     48          1           0        3.389600    0.091125   -0.043288
     49          1           0       -0.870051   -4.439618   -0.166984
     50          1           0       -5.431390   -0.186626   -0.264591
     51          1           0       -1.187675    4.314020   -0.911546
     52          1           0        1.334561   -5.243080    1.100064
     53          1           0        2.781088   -5.107267    0.429412
     54          1           0        1.501489   -5.405248   -0.482915
     55          1           0        4.253036   -3.371211    0.855265
     56          1           0        4.408813   -1.797861    0.786553
     57          1           0        4.629787   -1.898231   -1.537368
     58          1           0        4.396691   -3.461413   -1.509037
     59          1           0       -3.977093   -5.443036   -0.910520
     60          1           0       -4.006010   -5.373604    0.670943
     61          1           0       -2.623525   -5.505571   -0.090108
     62          1           0       -6.184701   -3.015615   -1.152219
     63          1           0       -7.104013   -3.564219    1.283038
     64          1           0       -5.755547   -4.380692    1.129261
     65          1           0       -6.939753   -4.607767    0.103364
     66          1           0       -6.472574    2.931635   -1.122602
     67          1           0       -6.334741    3.058528    0.450924
     68          1           0       -6.518045    1.633695   -0.215662
     69          1           0       -4.218656    5.106750   -1.474877
     70          1           0       -4.377458    6.000747    1.050131
     71          1           0       -5.130086    4.608835    0.999948
     72          1           0       -5.593659    5.793579    0.057811
     73          1           0        1.931105    5.444530   -0.211777
     74          1           0        0.554055    5.441716   -1.027454
     75          1           0        1.938837    5.199242   -1.793377
     76          1           0        4.136793    3.544209   -1.088978
     77          1           0        4.397733    1.986676   -0.943664
     78          1           0        4.164364    2.206041    1.414239
     79          1           0        4.012698    3.770169    1.230746
     80          1           0        0.723007   -0.065756    3.077064
     81          1           0       -2.338629   -0.589793    1.674772
     82          1           0        5.888442    3.996905    2.619979
     83          1           0        6.569277   -3.065684   -2.743306
 ---------------------------------------------------------------------

 SCF Done:  E(UPBE1PBE) =  -3536.16611078     A.U. after   77 cycles

 Alpha virt. eigenvalues --    0.35268   0.35625   0.35894   0.35914   0.35986
 Alpha virt. eigenvalues --    0.36291   0.36653   0.36812   0.36999   0.37358
 Alpha virt. eigenvalues --    0.37427   0.37785   0.37925   0.38286   0.38520

  Beta  occ. eigenvalues -- -256.43065 -89.09944 -30.18522 -26.01681 -26.01377
  Beta  occ. eigenvalues --  -26.00895 -19.28138 -19.27930 -19.19401 -19.19288
  Beta  occ. eigenvalues --  -14.43092 -14.43054 -14.43048 -14.42969 -10.36853
  Beta  occ. eigenvalues --  -10.36676 -10.29303 -10.29233 -10.29145 -10.28992
  Beta  occ. eigenvalues --  -10.28902 -10.28888 -10.28862 -10.28716 -10.27783
  Beta  occ. eigenvalues --  -10.27153 -10.26847 -10.26023 -10.25923 -10.25800
  Beta  occ. eigenvalues --  -10.25771 -10.25753 -10.25632 -10.25430 -10.25419
  Beta  occ. eigenvalues --  -10.25357 -10.25287 -10.25267 -10.24073 -10.22088
  Beta  occ. eigenvalues --  -10.22027 -10.22000 -10.21951 -10.20209 -10.20140
  Beta  occ. eigenvalues --  -10.19868 -10.19737 -10.18598 -10.18583  -8.07887
  Beta  occ. eigenvalues --   -6.01419  -6.01150  -6.00975  -3.50891  -2.26866
  Beta  occ. eigenvalues --   -2.25958  -2.25070  -1.18184  -1.17784  -1.04593
  Beta  occ. eigenvalues --   -1.04021  -1.02681  -1.01882  -1.01334  -0.99849
  Beta  occ. eigenvalues --   -0.88623  -0.87449  -0.86598  -0.86290  -0.85913
  Beta  occ. eigenvalues --   -0.85656  -0.85440  -0.85170  -0.82464  -0.81825
  Beta  occ. eigenvalues --   -0.81015  -0.80727  -0.79952  -0.77873  -0.76456
  Beta  occ. eigenvalues --   -0.76193  -0.75836  -0.74097  -0.72500  -0.72180
  Beta  occ. eigenvalues --   -0.71511  -0.70700  -0.70122  -0.68726  -0.68694
  Beta  occ. eigenvalues --   -0.67760  -0.66108  -0.63871  -0.63229  -0.60273
  Beta  occ. eigenvalues --   -0.59569  -0.59374  -0.57154  -0.56782  -0.56359
  Beta  occ. eigenvalues --   -0.56111  -0.55733  -0.55228  -0.53759  -0.53485
  Beta  occ. eigenvalues --   -0.52956  -0.52419  -0.52189  -0.51383  -0.51221
  Beta  occ. eigenvalues --   -0.50103  -0.49552  -0.49460  -0.49406  -0.48916
  Beta  occ. eigenvalues --   -0.48356  -0.48313  -0.48126  -0.47998  -0.47795
  Beta  occ. eigenvalues --   -0.47722  -0.47500  -0.47281  -0.46806  -0.46329
  Beta  occ. eigenvalues --   -0.46200  -0.45931  -0.45684  -0.45537  -0.45280
  Beta  occ. eigenvalues --   -0.45072  -0.44927  -0.44558  -0.44512  -0.43983
  Beta  occ. eigenvalues --   -0.43378  -0.42538  -0.42462  -0.42134  -0.41912
  Beta  occ. eigenvalues --   -0.41606  -0.41490  -0.41257  -0.41018  -0.40707
  Beta  occ. eigenvalues --   -0.40518  -0.40201  -0.39618  -0.39140  -0.38845
  Beta  occ. eigenvalues --   -0.38349  -0.37631  -0.37416  -0.37167  -0.37094
  Beta  occ. eigenvalues --   -0.36481  -0.35555  -0.34966  -0.34717  -0.34339
  Beta  occ. eigenvalues --   -0.34183  -0.32852  -0.32721  -0.30788  -0.30527
  Beta  occ. eigenvalues --   -0.29773  -0.29709  -0.28607  -0.28070  -0.27759
  Beta  occ. eigenvalues --   -0.26140  -0.25086  -0.24205  -0.23200
  Beta virt. eigenvalues --   -0.12712  -0.11348  -0.09266  -0.09078  -0.08102
  Beta virt. eigenvalues --   -0.04637  -0.04054  -0.00463   0.00015   0.00108
  Beta virt. eigenvalues --    0.00351   0.01201   0.01886   0.02616   0.03312

 Mulliken charges and spin densities:
               1          2
     1  C   -0.333980   0.005638
     2  S    0.026390  -0.146976
     3  H    0.175629  -0.003471
     4  H    0.197897  -0.005152
     5  Fe   0.045090   1.607776
     6  C   -0.537985  -0.072249
     7  C   -0.526925  -0.085081
     8  C   -0.475070  -0.081934
     9  C   -0.516669  -0.046126
    10  N   -0.147789  -0.106818
    11  C    0.293173   0.032061
    12  C    0.025327   0.011475
    13  C   -0.077100   0.008209
    14  C    0.252933   0.034873
    15  C   -0.382182  -0.001108
    16  C   -0.329805  -0.001748
    17  C   -0.271938   0.000782
    18  C    0.325288   0.000125
    19  O   -0.313958   0.000052
    20  O   -0.427155  -0.000038
    21  N   -0.125691  -0.094838
    22  C    0.337456   0.036236
    23  C   -0.094109  -0.056196
    24  C   -0.101827   0.063487
    25  C    0.266039   0.020098
    26  C   -0.340566   0.003170
    27  C   -0.177551  -0.984338
    28  C   -0.345234   0.038829
    29  N   -0.112829  -0.104640
    30  C    0.349213   0.024534
    31  C   -0.141920   0.040461
    32  C   -0.078358  -0.028559
    33  C    0.282631   0.023945
    34  C   -0.337439  -0.003541
    35  C   -0.154670   0.986056
    36  C   -0.361545  -0.036317
    37  N   -0.069180  -0.156226
    38  C    0.355062   0.028340
    39  C   -0.121825   0.006101
    40  C   -0.046745  -0.005583
    41  C    0.286967   0.034860
    42  C   -0.374618  -0.001028
    43  C   -0.252889  -0.000047
    44  C   -0.292154  -0.000395
    45  C    0.317031  -0.000178
    46  O   -0.304770  -0.000056
    47  O   -0.419359  -0.000022
    48  H    0.180243   0.003172
    49  H    0.173945   0.003425
    50  H    0.172648  -0.004244
    51  H    0.172255   0.007965
    52  H    0.156181   0.000377
    53  H    0.155702  -0.000059
    54  H    0.153849   0.000285
    55  H    0.151375   0.000026
    56  H    0.139977   0.000074
    57  H    0.161865  -0.000083
    58  H    0.159928  -0.000014
    59  H    0.156027  -0.001764
    60  H    0.149015  -0.001183
    61  H    0.141140  -0.000010
    62  H    0.150505   0.021610
    63  H    0.151760  -0.027304
    64  H    0.128979  -0.009250
    65  H    0.137323  -0.011423
    66  H    0.153899   0.001360
    67  H    0.147689   0.001417
    68  H    0.143463  -0.000503
    69  H    0.148275  -0.017665
    70  H    0.152236   0.026455
    71  H    0.136848   0.009086
    72  H    0.139022   0.011068
    73  H    0.149912  -0.000149
    74  H    0.142231   0.000345
    75  H    0.160431   0.000215
    76  H    0.150437   0.000036
    77  H    0.142093  -0.000167
    78  H    0.159962  -0.000072
    79  H    0.154882   0.000021
    80  H    0.181993   0.000124
    81  H    0.234568   0.002384
    82  H    0.382772   0.000003
    83  H    0.384279  -0.000004
 Sum of Mulliken charges =   1.00000   1.00000

 Dipole moment (field-independent basis, Debye):
    X=            -11.9848    Y=             -0.7792    Z=              2.5895  Tot=             12.2861
 Quadrupole moment (field-independent basis, Debye-Ang):
   XX=           -273.0052   YY=           -188.3983   ZZ=           -242.7638
   XY=              8.9611   XZ=             -7.9241   YZ=             20.7147

 Normal termination of Gaussian 16 at Fri Feb 10 20:18:30 2023.
