 Gaussian 16, Revision A.03,

 ----------------------------------------------------------------------
 # PBE1PBE/def2TZVP empiricaldispersion=GD3BJ scf=maxcycle=999 geom=che
 ck pop=nbo
 ----------------------------------------------------------------------

 ----------
 7aba_III_H
 ----------
 Structure from the checkpoint file:  "7aba_III_H.chk"
 Charge =  1 Multiplicity = 6

 SCF Done:  E(UPBE1PBE) =  -3536.09663287     A.U. after   48 cycles

 Summary of Natural Population Analysis:

                                       Natural Population
                Natural  -----------------------------------------------
    Atom  No    Charge         Core      Valence    Rydberg      Total
 -----------------------------------------------------------------------
      C    1   -0.37398      0.99964     2.36695    0.00738     3.37398
      S    2    0.21102      4.99944     2.76554    0.02400     7.78898
      H    3    0.12302      0.00000     0.37627    0.00070     0.37698
      H    4    0.12431      0.00000     0.37520    0.00049     0.37569
     Fe    5    1.76334      8.99594     2.22384    0.01689    11.23666
      C    6   -0.10661      0.99947     2.09826    0.00888     3.10661
      C    7   -0.11115      0.99949     2.10376    0.00790     3.11115
      C    8   -0.11276      0.99949     2.10560    0.00767     3.11276
      C    9   -0.09575      0.99948     2.08847    0.00780     3.09575
      N   10   -0.24668      0.99970     2.72630    0.02067     3.74668
      C   11    0.08004      0.99953     1.91017    0.01026     2.91996
      C   12    0.00306      0.99939     1.98852    0.00903     2.99694
      C   13    0.00303      0.99939     1.98977    0.00781     2.99697
      C   14    0.08030      0.99954     1.90957    0.01059     2.91970
      C   15   -0.30406      0.99957     2.30130    0.00318     3.30406
      C   16   -0.19071      0.99953     2.18442    0.00677     3.19071
      C   17   -0.24842      0.99950     2.24106    0.00786     3.24842
      C   18    0.38280      0.99977     1.60073    0.01670     2.61720
      O   19   -0.30946      0.99981     3.29439    0.01526     4.30946
      O   20   -0.28979      0.99990     3.27820    0.01169     4.28979
      N   21   -0.25241      0.99969     2.73142    0.02130     3.75241
      C   22    0.08329      0.99954     1.90655    0.01062     2.91671
      C   23    0.03070      0.99937     1.96231    0.00762     2.96930
      C   24   -0.06163      0.99938     2.05340    0.00885     3.06163
      C   25    0.09404      0.99954     1.89605    0.01036     2.90596
      C   26   -0.29975      0.99955     2.29690    0.00330     3.29975
      C   27    0.46541      0.99918     1.53062    0.00479     2.53459
      C   28   -0.33398      0.99958     2.33149    0.00292     3.33398
      N   29   -0.23875      0.99968     2.71828    0.02078     3.73875
      C   30    0.08766      0.99955     1.90239    0.01040     2.91234
      C   31    0.02348      0.99938     1.96949    0.00765     2.97652
      C   32   -0.05088      0.99937     2.04277    0.00875     3.05088
      C   33    0.09583      0.99954     1.89444    0.01019     2.90417
      C   34   -0.30070      0.99956     2.29788    0.00327     3.30070
      C   35    0.47277      0.99911     1.52344    0.00469     2.52723
      C   36   -0.33223      0.99957     2.32965    0.00301     3.33223
      N   37   -0.24247      0.99970     2.72223    0.02054     3.74247
      C   38    0.07147      0.99950     1.91912    0.00991     2.92853
      C   39    0.02608      0.99959     1.96696    0.00738     2.97392
      C   40    0.02606      0.99958     1.96627    0.00809     2.97394
      C   41    0.06766      0.99949     1.92280    0.01005     2.93234
      C   42   -0.30670      0.99957     2.30408    0.00305     3.30670
      C   43   -0.19688      0.99953     2.19115    0.00620     3.19688
      C   44   -0.24464      0.99950     2.23723    0.00790     3.24464
      C   45    0.38239      0.99978     1.60069    0.01715     2.61761
      O   46   -0.30714      0.99981     3.29196    0.01538     4.30714
      O   47   -0.29059      0.99989     3.27851    0.01219     4.29059
      H   48    0.10953      0.00000     0.38947    0.00100     0.39047
      H   49    0.10904      0.00000     0.38967    0.00129     0.39096
      H   50    0.11272      0.00000     0.38619    0.00109     0.38728
      H   51    0.11090      0.00000     0.38791    0.00119     0.38910
      H   52    0.10910      0.00000     0.39026    0.00065     0.39090
      H   53    0.10961      0.00000     0.38977    0.00062     0.39039
      H   54    0.10861      0.00000     0.39076    0.00063     0.39139
      H   55    0.11331      0.00000     0.38604    0.00066     0.38669
      H   56    0.10640      0.00000     0.39265    0.00095     0.39360
      H   57    0.10600      0.00000     0.39330    0.00069     0.39400
      H   58    0.10697      0.00000     0.39236    0.00068     0.39303
      H   59    0.11131      0.00000     0.38804    0.00065     0.38869
      H   60    0.10911      0.00000     0.39020    0.00070     0.39089
      H   61    0.10336      0.00000     0.39611    0.00053     0.39664
      H   62    0.06921      0.00000     0.42974    0.00105     0.43079
      H   63    0.12400      0.00000     0.37553    0.00048     0.37600
      H   64    0.10601      0.00000     0.39334    0.00065     0.39399
      H   65    0.11198      0.00000     0.38753    0.00049     0.38802
      H   66    0.11082      0.00000     0.38852    0.00066     0.38918
      H   67    0.10909      0.00000     0.39021    0.00071     0.39091
      H   68    0.10442      0.00000     0.39505    0.00052     0.39558
      H   69    0.06973      0.00000     0.42920    0.00107     0.43027
      H   70    0.12284      0.00000     0.37667    0.00049     0.37716
      H   71    0.10583      0.00000     0.39352    0.00065     0.39417
      H   72    0.11102      0.00000     0.38848    0.00051     0.38898
      H   73    0.10994      0.00000     0.38941    0.00065     0.39006
      H   74    0.10625      0.00000     0.39320    0.00055     0.39375
      H   75    0.11342      0.00000     0.38596    0.00063     0.38658
      H   76    0.10953      0.00000     0.38958    0.00089     0.39047
      H   77    0.11207      0.00000     0.38685    0.00108     0.38793
      H   78    0.10761      0.00000     0.39177    0.00062     0.39239
      H   79    0.10129      0.00000     0.39793    0.00079     0.39871
      H   80    0.12652      0.00000     0.37302    0.00046     0.37348
      H   81    0.09226      0.00000     0.40607    0.00167     0.40774
      H   82    0.24984      0.00000     0.24918    0.00098     0.25016
      H   83    0.25074      0.00000     0.24828    0.00098     0.24926
 =======================================================================
   * Total *    3.00000     56.97609   114.53815    0.48575   172.00000

 Normal termination of Gaussian 16 at Sun Feb 19 10:25:21 2023.
 Gaussian 16:  ES64L-G16RevA.03 25-Dec-2016

 ----------------------------------------------------------------------
 # PBE1PBE/def2TZVP empiricaldispersion=GD3BJ int=(grid=ultrafine) geom
 =check guess=read scrf=(smd,solvent=Chloroform)
 ----------------------------------------------------------------------

 ---------------
 7aba_III_H_solv
 ---------------
 Structure from the checkpoint file:  "7aba_III_H.chk"
 Charge =  1 Multiplicity = 6

                         Standard orientation:
 ---------------------------------------------------------------------
 Center     Atomic      Atomic             Coordinates (Angstroms)
 Number     Number       Type             X           Y           Z
 ---------------------------------------------------------------------
      1          6           0       -0.118224   -0.702271    2.897958
      2         16           0       -1.406411    0.228413    2.096209
      3          1           0        0.177730   -1.516147    2.269533
      4          1           0       -0.481049   -1.084367    3.829226
      5         26           0       -1.025748   -0.040943   -0.247034
      6          6           0        2.415686    0.050262   -0.145902
      7          6           0       -0.897602   -3.460436   -0.147775
      8          6           0       -4.454013   -0.144907   -0.306964
      9          6           0       -1.161091    3.352786   -0.723413
     10          7           0        0.484626   -1.446552   -0.196339
     11          6           0        1.835479   -1.182458   -0.072886
     12          6           0        2.534139   -2.436902    0.129932
     13          6           0        1.599721   -3.410852    0.131552
     14          6           0        0.306234   -2.803567   -0.072867
     15          6           0        1.824806   -4.931441    0.311133
     16          6           0        4.069998   -2.580711    0.322960
     17          6           0        4.772627   -2.709160   -1.025454
     18          6           0        6.252100   -2.926202   -0.847213
     19          8           0        6.968333   -2.919073   -1.882574
     20          8           0        6.715372   -3.075524    0.316117
     21          7           0       -2.407834   -1.517475   -0.264848
     22          6           0       -2.139322   -2.869890   -0.196899
     23          6           0       -3.402096   -3.579010   -0.189154
     24          6           0       -4.386460   -2.658509   -0.201824
     25          6           0       -3.774892   -1.342379   -0.264460
     26          6           0       -3.512439   -5.119045   -0.123869
     27          6           0       -5.916593   -2.849942   -0.245842
     28          6           0       -6.480411   -3.950701    0.649039
     29          7           0       -2.541036    1.355100   -0.519039
     30          6           0       -3.885439    1.104613   -0.403792
     31          6           0       -4.589055    2.372673   -0.444726
     32          6           0       -3.662313    3.350459   -0.536172
     33          6           0       -2.366241    2.714922   -0.592921
     34          6           0       -6.120734    2.512013   -0.321897
     35          6           0       -3.860200    4.880278   -0.613556
     36          6           0       -4.829926    5.365658    0.473946
     37          7           0        0.387365    1.435738   -0.406850
     38          6           0        0.081976    2.777110   -0.616960
     39          6           0        1.310348    3.522519   -0.726610
     40          6           0        2.423512    2.501990   -0.530676
     41          6           0        1.760134    1.235653   -0.349188
     42          6           0        1.446162    5.039801   -0.960891
     43          6           0        3.946992    2.754695   -0.559332
     44          6           0        4.423574    2.967774    0.872489
     45          6           0        5.929985    3.117838    0.910109
     46          8           0        6.446736    3.613072    1.939847
     47          8           0        6.595460    2.736606   -0.075413
     48          1           0        3.389600    0.091125   -0.043288
     49          1           0       -0.870051   -4.439618   -0.166984
     50          1           0       -5.431390   -0.186626   -0.264591
     51          1           0       -1.187675    4.314020   -0.911546
     52          1           0        1.334561   -5.243080    1.100064
     53          1           0        2.781088   -5.107267    0.429412
     54          1           0        1.501489   -5.405248   -0.482915
     55          1           0        4.253036   -3.371211    0.855265
     56          1           0        4.408813   -1.797861    0.786553
     57          1           0        4.629787   -1.898231   -1.537368
     58          1           0        4.396691   -3.461413   -1.509037
     59          1           0       -3.977093   -5.443036   -0.910520
     60          1           0       -4.006010   -5.373604    0.670943
     61          1           0       -2.623525   -5.505571   -0.090108
     62          1           0       -6.184701   -3.015615   -1.152219
     63          1           0       -7.104013   -3.564219    1.283038
     64          1           0       -5.755547   -4.380692    1.129261
     65          1           0       -6.939753   -4.607767    0.103364
     66          1           0       -6.472574    2.931635   -1.122602
     67          1           0       -6.334741    3.058528    0.450924
     68          1           0       -6.518045    1.633695   -0.215662
     69          1           0       -4.218656    5.106750   -1.474877
     70          1           0       -4.377458    6.000747    1.050131
     71          1           0       -5.130086    4.608835    0.999948
     72          1           0       -5.593659    5.793579    0.057811
     73          1           0        1.931105    5.444530   -0.211777
     74          1           0        0.554055    5.441716   -1.027454
     75          1           0        1.938837    5.199242   -1.793377
     76          1           0        4.136793    3.544209   -1.088978
     77          1           0        4.397733    1.986676   -0.943664
     78          1           0        4.164364    2.206041    1.414239
     79          1           0        4.012698    3.770169    1.230746
     80          1           0        0.723007   -0.065756    3.077064
     81          1           0       -2.338629   -0.589793    1.674772
     82          1           0        5.888442    3.996905    2.619979
     83          1           0        6.569277   -3.065684   -2.743306
 ---------------------------------------------------------------------

 SCF Done:  E(UPBE1PBE) =  -3536.19800461     A.U. after   31 cycles

 Alpha virt. eigenvalues --    0.35733   0.35767   0.35803   0.36093   0.36451
 Alpha virt. eigenvalues --    0.36697   0.36862   0.37289   0.37319   0.37573
 Alpha virt. eigenvalues --    0.37798   0.38048   0.38299   0.38528   0.38791

  Beta  occ. eigenvalues -- -256.46911 -89.07186 -30.21179 -26.04473 -26.04312
  Beta  occ. eigenvalues --  -26.03753 -19.28169 -19.27956 -19.19425 -19.19331
  Beta  occ. eigenvalues --  -14.43481 -14.43148 -14.42958 -14.42823 -10.36884
  Beta  occ. eigenvalues --  -10.36729 -10.29596 -10.29566 -10.29326 -10.29243
  Beta  occ. eigenvalues --  -10.29205 -10.29158 -10.29089 -10.28831 -10.27632
  Beta  occ. eigenvalues --  -10.27311 -10.27050 -10.26316 -10.26232 -10.26104
  Beta  occ. eigenvalues --  -10.25986 -10.25977 -10.25875 -10.24959 -10.24943
  Beta  occ. eigenvalues --  -10.24924 -10.24890 -10.24145 -10.24045 -10.22176
  Beta  occ. eigenvalues --  -10.22130 -10.22092 -10.22065 -10.20393 -10.20209
  Beta  occ. eigenvalues --  -10.20019 -10.19790 -10.18707 -10.18607  -8.05359
  Beta  occ. eigenvalues --   -5.98965  -5.98591  -5.98204  -3.51497  -2.27341
  Beta  occ. eigenvalues --   -2.26994  -2.24183  -1.18216  -1.17810  -1.04635
  Beta  occ. eigenvalues --   -1.04045  -1.02812  -1.01900  -1.01492  -0.99842
  Beta  occ. eigenvalues --   -0.88551  -0.86717  -0.86401  -0.85903  -0.85691
  Beta  occ. eigenvalues --   -0.85470  -0.85244  -0.85189  -0.82550  -0.81827
  Beta  occ. eigenvalues --   -0.80599  -0.80371  -0.79892  -0.77942  -0.76554
  Beta  occ. eigenvalues --   -0.76277  -0.75966  -0.74207  -0.72258  -0.71615
  Beta  occ. eigenvalues --   -0.71449  -0.70672  -0.70152  -0.68800  -0.68696
  Beta  occ. eigenvalues --   -0.66426  -0.66018  -0.63843  -0.63213  -0.60394
  Beta  occ. eigenvalues --   -0.59511  -0.59308  -0.57248  -0.56859  -0.56421
  Beta  occ. eigenvalues --   -0.56115  -0.55819  -0.55325  -0.53750  -0.53531
  Beta  occ. eigenvalues --   -0.52921  -0.52279  -0.51692  -0.51377  -0.51210
  Beta  occ. eigenvalues --   -0.49687  -0.49470  -0.49400  -0.49226  -0.48734
  Beta  occ. eigenvalues --   -0.48402  -0.48254  -0.48113  -0.47837  -0.47777
  Beta  occ. eigenvalues --   -0.47468  -0.47383  -0.46986  -0.46718  -0.46221
  Beta  occ. eigenvalues --   -0.46050  -0.45876  -0.45544  -0.45473  -0.45229
  Beta  occ. eigenvalues --   -0.44896  -0.44713  -0.44520  -0.44396  -0.43981
  Beta  occ. eigenvalues --   -0.43288  -0.42624  -0.42488  -0.42222  -0.41875
  Beta  occ. eigenvalues --   -0.41684  -0.41501  -0.41224  -0.41043  -0.40778
  Beta  occ. eigenvalues --   -0.40313  -0.40170  -0.39776  -0.39008  -0.38505
  Beta  occ. eigenvalues --   -0.38042  -0.37598  -0.37371  -0.37122  -0.37035
  Beta  occ. eigenvalues --   -0.36568  -0.35826  -0.35157  -0.34399  -0.34206
  Beta  occ. eigenvalues --   -0.33542  -0.32632  -0.32347  -0.31488  -0.29849
  Beta  occ. eigenvalues --   -0.29813  -0.28875  -0.28553  -0.28059  -0.26296
  Beta  occ. eigenvalues --   -0.24063  -0.23479
  Beta virt. eigenvalues --   -0.13573  -0.13169  -0.10800  -0.10048  -0.09647
  Beta virt. eigenvalues --   -0.08121  -0.07886  -0.04903  -0.04404  -0.00186
  Beta virt. eigenvalues --    0.00056   0.00307   0.00797   0.01237   0.01972

 Mulliken charges and spin densities:
               1          2
     1  C   -0.333694  -0.004229
     2  S   -0.065766   0.150460
     3  H    0.168158   0.003494
     4  H    0.189637   0.005119
     5  Fe   0.115022   3.021984
     6  C   -0.546997  -0.000207
     7  C   -0.544524   0.008361
     8  C   -0.490290   0.011545
     9  C   -0.530068   0.004484
    10  N   -0.150056  -0.072074
    11  C    0.299862   0.005688
    12  C    0.029458   0.008047
    13  C   -0.073297   0.008912
    14  C    0.259666  -0.000101
    15  C   -0.381541  -0.001456
    16  C   -0.329987  -0.001635
    17  C   -0.272287   0.000610
    18  C    0.325245   0.000108
    19  O   -0.313863   0.000043
    20  O   -0.426751  -0.000015
    21  N   -0.129896  -0.067632
    22  C    0.344257  -0.002328
    23  C   -0.086832   0.057354
    24  C   -0.094549  -0.047496
    25  C    0.269618   0.006769
    26  C   -0.339536  -0.004551
    27  C   -0.174590   0.981250
    28  C   -0.345335  -0.038229
    29  N   -0.110409  -0.068824
    30  C    0.355362   0.009276
    31  C   -0.138998   0.040435
    32  C   -0.074931  -0.027408
    33  C    0.287861   0.014790
    34  C   -0.336892  -0.003789
    35  C   -0.153515   0.985083
    36  C   -0.361535  -0.036119
    37  N   -0.081754  -0.078703
    38  C    0.359943   0.009892
    39  C   -0.112058   0.016132
    40  C   -0.034348   0.028770
    41  C    0.288639   0.004294
    42  C   -0.372872  -0.001900
    43  C   -0.251132  -0.003736
    44  C   -0.292762   0.001344
    45  C    0.317237   0.000297
    46  O   -0.304549   0.000091
    47  O   -0.419259   0.000029
    48  H    0.179895  -0.000249
    49  H    0.173393  -0.000382
    50  H    0.172452   0.006880
    51  H    0.171815   0.005304
    52  H    0.157329   0.000414
    53  H    0.156158  -0.000181
    54  H    0.154067   0.000382
    55  H    0.152168  -0.000092
    56  H    0.141037   0.000120
    57  H    0.161921   0.000008
    58  H    0.159997  -0.000014
    59  H    0.156684   0.001875
    60  H    0.150121   0.001479
    61  H    0.142404  -0.000106
    62  H    0.151392  -0.021165
    63  H    0.152596   0.027364
    64  H    0.129726   0.009284
    65  H    0.137869   0.011467
    66  H    0.154098   0.001471
    67  H    0.148322   0.001423
    68  H    0.144067   0.000041
    69  H    0.148537  -0.017669
    70  H    0.152555   0.026527
    71  H    0.137621   0.009095
    72  H    0.139082   0.011085
    73  H    0.151107   0.000470
    74  H    0.143616   0.000289
    75  H    0.161227   0.000515
    76  H    0.151341   0.000127
    77  H    0.142963   0.000346
    78  H    0.161471  -0.000066
    79  H    0.155322   0.000027
    80  H    0.176609   0.000084
    81  H    0.228692  -0.000366
    82  H    0.383007  -0.000009
    83  H    0.384245  -0.000004
 Sum of Mulliken charges =   1.00000   5.00000

 Dipole moment (field-independent basis, Debye):
    X=            -11.8123    Y=             -0.7633    Z=              1.3381  Tot=             11.9123
 Quadrupole moment (field-independent basis, Debye-Ang):
   XX=           -270.5554   YY=           -185.7483   ZZ=           -246.2073
   XY=             10.7001   XZ=             -6.5340   YZ=             20.5009

 Normal termination of Gaussian 16 at Sun Feb 19 18:50:26 2023.
