 Gaussian 16, Revision A.03,

 ----------------------------------------------------------------------
 # PBE1PBE/def2TZVP empiricaldispersion=GD3BJ int=(grid=ultrafine) geom
 =check pop=nbo
 ----------------------------------------------------------------------

 ----------
 6k9j_III_D
 ----------
 Structure from the checkpoint file:  "6k9j_III_D.chk"
 Charge =  1 Multiplicity = 2

 SCF Done:  E(UPBE1PBE) =  -3880.18110788     A.U. after   57 cycles

 Summary of Natural Population Analysis:

                                       Natural Population
                Natural  -----------------------------------------------
    Atom  No    Charge         Core      Valence    Rydberg      Total
 -----------------------------------------------------------------------
      C    1   -0.31901      0.99970     2.31614    0.00317     3.31901
      C    2    0.05424      0.99954     1.93682    0.00940     2.94576
      N    3   -0.23704      0.99967     2.72721    0.01016     3.73704
      C    4   -0.04089      0.99944     2.03193    0.00952     3.04089
      C    5    0.09850      0.99967     1.89221    0.00962     2.90150
      N    6   -0.16101      0.99968     2.63466    0.02668     3.66101
      C    7   -0.30758      0.99973     2.30379    0.00406     3.30758
      C    8   -0.27374      0.99969     2.26447    0.00958     3.27374
      S    9    0.30855      4.99923     2.67098    0.02123     7.69145
      C   10   -0.38484      0.99966     2.37580    0.00938     3.38484
     Fe   11    0.03648      8.99517     3.94438    0.02397    12.96352
      C   12   -0.11259      0.99947     2.10430    0.00882     3.11259
      C   13   -0.10743      0.99949     2.09911    0.00883     3.10743
      C   14   -0.11333      0.99948     2.10553    0.00832     3.11333
      C   15   -0.11599      0.99947     2.10797    0.00855     3.11599
      N   16   -0.17029      0.99969     2.64714    0.02346     3.67029
      C   17    0.05386      0.99952     1.93599    0.01063     2.94614
      C   18   -0.00687      0.99943     1.99783    0.00961     3.00687
      C   19   -0.01937      0.99943     2.01171    0.00823     3.01937
      C   20    0.06865      0.99951     1.92164    0.01020     2.93135
      C   21   -0.32062      0.99970     2.31716    0.00376     3.32062
      C   22   -0.21113      0.99967     2.20323    0.00822     3.21113
      C   23   -0.25747      0.99964     2.24934    0.00849     3.25747
      C   24    0.38105      0.99974     1.60274    0.01646     2.61895
      O   25   -0.32310      0.99980     3.30796    0.01534     4.32310
      O   26   -0.28369      0.99991     3.27307    0.01071     4.28369
      N   27   -0.16584      0.99964     2.64229    0.02391     3.66584
      C   28    0.05238      0.99948     1.93644    0.01170     2.94762
      C   29    0.07204      0.99919     1.91729    0.01148     2.92796
      C   30   -0.13185      0.99941     2.12243    0.01001     3.13185
      C   31    0.08951      0.99953     1.90074    0.01023     2.91049
      C   32   -0.60248      0.99953     2.57243    0.03051     3.60248
      C   33    0.39110      0.99968     1.60221    0.00701     2.60890
      C   34   -0.35815      0.99971     2.35182    0.00661     3.35815
      N   35   -0.13752      0.99967     2.61523    0.02261     3.63752
      C   36    0.03996      0.99951     1.94994    0.01058     2.96004
      C   37    0.07017      0.99943     1.92174    0.00866     2.92983
      C   38   -0.08837      0.99943     2.07888    0.01007     3.08837
      C   39    0.05334      0.99951     1.93640    0.01075     2.94666
      C   40   -0.32032      0.99969     2.31445    0.00618     3.32032
      C   41    0.09787      0.99972     1.89690    0.00551     2.90213
      C   42   -0.34427      0.99970     2.33840    0.00616     3.34427
      N   43   -0.18159      0.99969     2.65766    0.02424     3.68159
      C   44    0.06002      0.99951     1.92973    0.01074     2.93998
      C   45   -0.02307      0.99940     2.01495    0.00872     3.02307
      C   46   -0.01233      0.99942     2.00373    0.00918     3.01233
      C   47    0.05390      0.99953     1.93612    0.01045     2.94610
      C   48   -0.31840      0.99970     2.31259    0.00611     3.31840
      C   49   -0.21248      0.99967     2.20492    0.00789     3.21248
      C   50   -0.25501      0.99963     2.24697    0.00841     3.25501
      C   51    0.38160      0.99973     1.60181    0.01686     2.61840
      O   52   -0.26884      0.99989     3.25670    0.01226     4.26884
      O   53   -0.34247      0.99983     3.32871    0.01392     4.34247
      H   54    0.11103      0.00000     0.38838    0.00059     0.38897
      H   55    0.11916      0.00000     0.38031    0.00053     0.38084
      H   56    0.11615      0.00000     0.38324    0.00062     0.38385
      H   57    0.11107      0.00000     0.38818    0.00075     0.38893
      H   58    0.11121      0.00000     0.38776    0.00103     0.38879
      H   59    0.10938      0.00000     0.38998    0.00064     0.39062
      H   60    0.10743      0.00000     0.39166    0.00091     0.39257
      H   61    0.10932      0.00000     0.38929    0.00140     0.39068
      H   62    0.11620      0.00000     0.38251    0.00129     0.38380
      H   63    0.11648      0.00000     0.38271    0.00081     0.38352
      H   64    0.12280      0.00000     0.37664    0.00056     0.37720
      H   65    0.11487      0.00000     0.38458    0.00055     0.38513
      H   66    0.11396      0.00000     0.38528    0.00076     0.38604
      H   67    0.10946      0.00000     0.38914    0.00140     0.39054
      H   68    0.12194      0.00000     0.37660    0.00146     0.37806
      H   69    0.11433      0.00000     0.38443    0.00124     0.38567
      H   70    0.10873      0.00000     0.38973    0.00154     0.39127
      H   71    0.11374      0.00000     0.38557    0.00068     0.38626
      H   72    0.11141      0.00000     0.38791    0.00067     0.38859
      H   73    0.11577      0.00000     0.38346    0.00076     0.38423
      H   74    0.12148      0.00000     0.37767    0.00085     0.37852
      H   75    0.11300      0.00000     0.38613    0.00087     0.38700
      H   76    0.11405      0.00000     0.38511    0.00084     0.38595
      H   77    0.11097      0.00000     0.38807    0.00097     0.38903
      H   78    0.21689      0.00000     0.28187    0.00123     0.28311
      H   79    0.20889      0.00000     0.28995    0.00116     0.29111
      H   80    0.20024      0.00000     0.29902    0.00074     0.29976
      H   81    0.12557      0.00000     0.37394    0.00048     0.37443
      H   82    0.11065      0.00000     0.38858    0.00077     0.38935
      H   83    0.14264      0.00000     0.35690    0.00046     0.35736
      H   84    0.12078      0.00000     0.37859    0.00063     0.37922
      H   85    0.11414      0.00000     0.38546    0.00040     0.38586
      H   86    0.11177      0.00000     0.38758    0.00065     0.38823
      H   87    0.12036      0.00000     0.37908    0.00056     0.37964
      H   88    0.11458      0.00000     0.38473    0.00069     0.38542
      H   89    0.13390      0.00000     0.36553    0.00057     0.36610
      H   90    0.11686      0.00000     0.38247    0.00067     0.38314
      H   91    0.10825      0.00000     0.39131    0.00043     0.39175
      H   92    0.11213      0.00000     0.38715    0.00072     0.38787
      H   93    0.12181      0.00000     0.37729    0.00090     0.37819
      H   94    0.11131      0.00000     0.38786    0.00084     0.38869
      H   95    0.11161      0.00000     0.38747    0.00092     0.38839
      H   96    0.11792      0.00000     0.38118    0.00090     0.38208
      H   97    0.21239      0.00000     0.28678    0.00083     0.28761
      H   98    0.25487      0.00000     0.24404    0.00109     0.24513
      H   99    0.25388      0.00000     0.24500    0.00112     0.24612
      H  100    0.10484      0.00000     0.39429    0.00087     0.39516
      H  101    0.08554      0.00000     0.41364    0.00082     0.41446
 =======================================================================
   * Total *    1.00000     64.97396   138.36869    0.65736   204.00000

 Normal termination of Gaussian 16 at Sat Feb  4 17:18:17 2023.
 Gaussian 16:  ES64L-G16RevA.03 25-Dec-2016

 ----------------------------------------------------------------------
 # PBE1PBE/def2TZVP empiricaldispersion=GD3BJ int=(grid=ultrafine) geom
 =check guess=read scrf=(smd,solvent=Chloroform)
 ----------------------------------------------------------------------

 ---------------
 6k9j_III_D_solv
 ---------------
 Structure from the checkpoint file:  "6k9j_III_D.chk"
 Charge =  1 Multiplicity = 2

                         Standard orientation:
 ---------------------------------------------------------------------
 Center     Atomic      Atomic             Coordinates (Angstroms)
 Number     Number       Type             X           Y           Z
 ---------------------------------------------------------------------
      1          6           0        2.618348   -1.740274    4.948203
      2          6           0        1.782700   -1.236437    3.803960
      3          7           0        0.422835   -1.210439    3.837733
      4          6           0        2.116597   -0.819644    2.563162
      5          6           0       -0.011310   -0.767685    2.661519
      6          7           0        0.999592   -0.502631    1.831755
      7          6           0       -0.879830    2.803911   -2.632089
      8          6           0        0.509754    2.133586   -2.657231
      9         16           0        0.428710    0.374790   -2.287713
     10          6           0        1.756754   -0.261194   -3.256822
     11         26           0        0.868325   -0.048439   -0.085968
     12          6           0       -2.633473   -0.182732   -0.059356
     13          6           0        0.938575   -3.405888   -0.542159
     14          6           0        4.178584    0.161681   -0.487804
     15          6           0        0.705949    3.200550    0.891317
     16          7           0       -0.548895   -1.485201   -0.273287
     17          6           0       -1.927791   -1.350831   -0.337431
     18          6           0       -2.550497   -2.626175   -0.620549
     19          6           0       -1.552173   -3.539263   -0.719770
     20          6           0       -0.307421   -2.838321   -0.498457
     21          6           0       -1.652639   -5.021194   -1.027856
     22          6           0       -4.030329   -2.874243   -0.698074
     23          6           0       -4.574498   -3.234339    0.695980
     24          6           0       -6.038536   -3.654562    0.744193
     25          8           0       -6.486940   -3.937627    1.881949
     26          8           0       -6.709928   -3.729412   -0.346696
     27          7           0        2.302503   -1.409597   -0.457571
     28          6           0        2.160980   -2.731682   -0.505618
     29          6           0        3.444445   -3.323799   -0.675108
     30          6           0        4.366737   -2.342430   -0.751612
     31          6           0        3.611878   -1.092471   -0.564430
     32          6           0        3.643458   -4.839533   -0.669043
     33          6           0        5.802704   -2.411742   -1.077618
     34          6           0        6.118050   -2.973822   -2.385776
     35          7           0        2.146880    1.415845    0.093574
     36          6           0        3.506301    1.327214   -0.112776
     37          6           0        4.157087    2.564602    0.185470
     38          6           0        3.192572    3.425415    0.640747
     39          6           0        1.937173    2.692324    0.575747
     40          6           0        5.653331    2.822965    0.158287
     41          6           0        3.351691    4.768574    1.292750
     42          6           0        4.165830    5.785398    0.556992
     43          7           0       -0.655153    1.209850    0.375870
     44          6           0       -0.518119    2.557817    0.745726
     45          6           0       -1.807961    3.166738    0.930214
     46          6           0       -2.752437    2.236650    0.666053
     47          6           0       -2.024014    1.015600    0.286553
     48          6           0       -2.023560    4.630558    1.296914
     49          6           0       -4.247347    2.439800    0.608473
     50          6           0       -4.593006    3.009123   -0.766090
     51          6           0       -6.001717    3.475858   -0.976223
     52          8           0       -6.846742    3.493727   -0.072774
     53          8           0       -6.284431    3.896517   -2.173183
     54          1           0        1.996574   -2.274728    5.635703
     55          1           0        3.379228   -2.392865    4.573922
     56          1           0        3.073827   -0.911721    5.449141
     57          1           0        3.119912   -0.746339    2.198628
     58          1           0       -1.043732   -0.639729    2.411255
     59          1           0       -1.063663    3.279127   -3.572980
     60          1           0       -0.909025    3.535123   -1.851463
     61          1           0       -1.630404    2.062316   -2.454390
     62          1           0        1.069744    2.579376   -1.861880
     63          1           0        0.858972    2.210102   -3.665741
     64          1           0        2.120679   -1.164696   -2.813941
     65          1           0        1.409308   -0.464692   -4.248169
     66          1           0        2.546399    0.459762   -3.296605
     67          1           0       -3.701651   -0.210441   -0.115289
     68          1           0        0.979282   -4.472880   -0.611226
     69          1           0        5.215877    0.249378   -0.735258
     70          1           0        0.683388    4.193052    1.290481
     71          1           0       -1.052347   -5.571306   -0.333648
     72          1           0       -2.672299   -5.334553   -0.944196
     73          1           0       -1.304137   -5.203021   -2.023037
     74          1           0       -4.165118   -3.739163   -1.313415
     75          1           0       -4.483607   -1.945203   -0.974341
     76          1           0       -4.518618   -2.330444    1.265849
     77          1           0       -4.020398   -4.096236    1.004210
     78          1           0        4.555030   -4.536530   -0.197741
     79          1           0        3.283067   -4.709420   -1.668087
     80          1           0        4.333932   -5.467304   -1.192540
     81          1           0        6.973135   -3.611714   -2.303167
     82          1           0        5.283071   -3.540833   -2.741032
     83          1           0        6.329324   -2.181332   -3.072961
     84          1           0        6.042544    2.770102    1.153586
     85          1           0        6.131662    2.085136   -0.451390
     86          1           0        5.840013    3.795698   -0.246486
     87          1           0        4.757139    6.341278    1.254309
     88          1           0        4.808540    5.290598   -0.140860
     89          1           0        3.514107    6.451577    0.031291
     90          1           0       -2.556049    4.691559    2.223000
     91          1           0       -1.075537    5.116304    1.397928
     92          1           0       -2.590428    5.111306    0.527212
     93          1           0       -4.490750    3.191103    1.330413
     94          1           0       -4.698983    1.471782    0.670660
     95          1           0       -4.464591    2.193439   -1.446582
     96          1           0       -3.990137    3.887662   -0.864170
     97          1           0       -0.150374   -1.477773    4.612306
     98          1           0       -5.976270   -4.494380    2.474268
     99          1           0       -6.253566    3.288467   -2.915424
    100          1           0        2.903745    4.988200    2.239328
    101          1           0        6.560301   -2.073447   -0.401967
 ---------------------------------------------------------------------

 SCF Done:  E(UPBE1PBE) =  -3880.29514714     A.U. after   50 cycles

 Alpha virt. eigenvalues --    1.02727   1.03154   1.03552   1.03761   1.03893
 Alpha virt. eigenvalues --    1.04500   1.04541   1.04719   1.04939   1.05192
 Alpha virt. eigenvalues --    1.05610   1.06160   1.06288   1.06613   1.06663

  Beta  occ. eigenvalues -- -256.35056 -89.04099 -30.12097 -25.94910 -25.94672
  Beta  occ. eigenvalues --  -25.94366 -19.27452 -19.25525 -19.20221 -19.19696
  Beta  occ. eigenvalues --  -14.45519 -14.41804 -14.41185 -14.40008 -14.39896
  Beta  occ. eigenvalues --  -14.39599 -10.37169 -10.36687 -10.33367 -10.29112
  Beta  occ. eigenvalues --  -10.28421 -10.28342 -10.27995 -10.27934 -10.27647
  Beta  occ. eigenvalues --  -10.27513 -10.27510 -10.27444 -10.27409 -10.27192
  Beta  occ. eigenvalues --  -10.27035 -10.26859 -10.25173 -10.24998 -10.24884
  Beta  occ. eigenvalues --  -10.24345 -10.24329 -10.24326 -10.24176 -10.24164
  Beta  occ. eigenvalues --  -10.24088 -10.24013 -10.24007 -10.23962 -10.23886
  Beta  occ. eigenvalues --  -10.23864 -10.23835 -10.23833 -10.23647 -10.23537
  Beta  occ. eigenvalues --  -10.23255 -10.22956 -10.22429 -10.22055 -10.21841
  Beta  occ. eigenvalues --  -10.21437 -10.20408  -8.01998  -5.95631  -5.95340
  Beta  occ. eigenvalues --   -5.94856  -3.46345  -2.22269  -2.21851  -2.21344
  Beta  occ. eigenvalues --   -1.17582  -1.15223  -1.07684  -1.04769  -1.02916
  Beta  occ. eigenvalues --   -1.02094  -1.01078  -0.99088  -0.98004  -0.92762
  Beta  occ. eigenvalues --   -0.87518  -0.87027  -0.86441  -0.85905  -0.85519
  Beta  occ. eigenvalues --   -0.85202  -0.83785  -0.83634  -0.81775  -0.81609
  Beta  occ. eigenvalues --   -0.80824  -0.80093  -0.80016  -0.78355  -0.78143
  Beta  occ. eigenvalues --   -0.76698  -0.75553  -0.74879  -0.74150  -0.73194
  Beta  occ. eigenvalues --   -0.72173  -0.70842  -0.70374  -0.69167  -0.68577
  Beta  occ. eigenvalues --   -0.68387  -0.67514  -0.66717  -0.66128  -0.65591
  Beta  occ. eigenvalues --   -0.64364  -0.63208  -0.62147  -0.61671  -0.60509
  Beta  occ. eigenvalues --   -0.58866  -0.57718  -0.57449  -0.57256  -0.56674
  Beta  occ. eigenvalues --   -0.55414  -0.54805  -0.54257  -0.53786  -0.53646
  Beta  occ. eigenvalues --   -0.52977  -0.52408  -0.52340  -0.51717  -0.51097
  Beta  occ. eigenvalues --   -0.50718  -0.50185  -0.49435  -0.49181  -0.49057
  Beta  occ. eigenvalues --   -0.48905  -0.48822  -0.48362  -0.47836  -0.47677
  Beta  occ. eigenvalues --   -0.47561  -0.47303  -0.46983  -0.46605  -0.46363
  Beta  occ. eigenvalues --   -0.46248  -0.46017  -0.45868  -0.45662  -0.45356
  Beta  occ. eigenvalues --   -0.45097  -0.44873  -0.44692  -0.44356  -0.44188
  Beta  occ. eigenvalues --   -0.44068  -0.43688  -0.43562  -0.43371  -0.43014
  Beta  occ. eigenvalues --   -0.42636  -0.42495  -0.42317  -0.41950  -0.41629
  Beta  occ. eigenvalues --   -0.41569  -0.41277  -0.41089  -0.40696  -0.40473
  Beta  occ. eigenvalues --   -0.40089  -0.39973  -0.39529  -0.39409  -0.39224
  Beta  occ. eigenvalues --   -0.38933  -0.38740  -0.38362  -0.38060  -0.37874
  Beta  occ. eigenvalues --   -0.37421  -0.37293  -0.36995  -0.36655  -0.36001
  Beta  occ. eigenvalues --   -0.35710  -0.35314  -0.34668  -0.34612  -0.34133
  Beta  occ. eigenvalues --   -0.34003  -0.33178  -0.32280  -0.31362  -0.30897
  Beta  occ. eigenvalues --   -0.30190  -0.29825  -0.29142  -0.28698  -0.27198
  Beta  occ. eigenvalues --   -0.26726  -0.26310  -0.24847  -0.23986  -0.23495
  Beta  occ. eigenvalues --   -0.22423  -0.21703  -0.21333  -0.21271
  Beta virt. eigenvalues --   -0.15346  -0.09981  -0.09202  -0.06608  -0.02981
  Beta virt. eigenvalues --   -0.01661  -0.01525  -0.00858  -0.00367   0.00893
  Beta virt. eigenvalues --    0.01523   0.01791   0.02046   0.02391   0.02490

 Mulliken charges and spin densities:
               1          2
     1  C   -0.390351  -0.000046
     2  C    0.133676   0.000228
     3  N   -0.195965   0.000018
     4  C   -0.248435  -0.000605
     5  C   -0.025404  -0.000175
     6  N    0.068740  -0.000220
     7  C   -0.415139  -0.000029
     8  C   -0.119171  -0.000188
     9  S    0.022217  -0.001061
    10  C   -0.391142   0.000221
    11  Fe  -0.504353   0.033689
    12  C   -0.587070   0.013326
    13  C   -0.560604   0.024376
    14  C   -0.551162   0.005502
    15  C   -0.523317  -0.001276
    16  N    0.015276   0.010833
    17  C    0.292622  -0.016115
    18  C    0.056418  -0.003076
    19  C   -0.113619  -0.000234
    20  C    0.308740  -0.019774
    21  C   -0.432052   0.000084
    22  C   -0.317574   0.000526
    23  C   -0.254597  -0.000373
    24  C    0.317690  -0.000061
    25  O   -0.328915  -0.000024
    26  O   -0.428198  -0.000004
    27  N   -0.008408   0.032585
    28  C    0.288437  -0.036263
    29  C   -0.058119   0.109980
    30  C   -0.029579  -0.143919
    31  C    0.169110   0.019967
    32  C   -0.774556   0.011473
    33  C   -0.285218   0.970007
    34  C   -0.340412  -0.062720
    35  N    0.084616  -0.000101
    36  C    0.303676  -0.009059
    37  C   -0.038588   0.022042
    38  C   -0.052881  -0.012432
    39  C    0.210498  -0.004295
    40  C   -0.370654  -0.001308
    41  C   -0.048077   0.024364
    42  C   -0.319989  -0.001916
    43  N    0.045833   0.005187
    44  C    0.294144  -0.004738
    45  C   -0.129129  -0.004308
    46  C    0.043916   0.002371
    47  C    0.182852  -0.015201
    48  C   -0.420638   0.000378
    49  C   -0.200605  -0.000148
    50  C   -0.260654   0.000036
    51  C    0.322440  -0.000010
    52  O   -0.372039  -0.000008
    53  O   -0.392360  -0.000002
    54  H    0.147619  -0.000005
    55  H    0.161655  -0.000002
    56  H    0.156226   0.000011
    57  H    0.165306   0.000166
    58  H    0.195837   0.000013
    59  H    0.147676  -0.000003
    60  H    0.130221   0.000027
    61  H    0.138231   0.000002
    62  H    0.122550   0.000033
    63  H    0.158190  -0.000078
    64  H    0.163780  -0.000010
    65  H    0.172153   0.000032
    66  H    0.156124  -0.000046
    67  H    0.144696  -0.000613
    68  H    0.171990  -0.000513
    69  H    0.156200   0.001282
    70  H    0.136063   0.000237
    71  H    0.159597  -0.000023
    72  H    0.147240   0.000010
    73  H    0.159541  -0.000152
    74  H    0.139725  -0.000070
    75  H    0.128664  -0.000057
    76  H    0.150665   0.000024
    77  H    0.157952   0.000011
    78  H    0.272943   0.015743
    79  H    0.277072  -0.002525
    80  H    0.291596   0.003748
    81  H    0.140208   0.021973
    82  H    0.133999   0.006506
    83  H    0.149960   0.053287
    84  H    0.167077   0.001102
    85  H    0.156611   0.000248
    86  H    0.142456   0.000508
    87  H    0.163214   0.000559
    88  H    0.147518   0.000272
    89  H    0.191747   0.000959
    90  H    0.162397  -0.000161
    91  H    0.135875  -0.000012
    92  H    0.148653  -0.000207
    93  H    0.124905   0.000015
    94  H    0.126609   0.000017
    95  H    0.151015  -0.000028
    96  H    0.149420   0.000007
    97  H    0.280350   0.000013
    98  H    0.391248   0.000001
    99  H    0.382710   0.000000
   100  H    0.205243  -0.001240
   101  H    0.167342  -0.048567
 Sum of Mulliken charges =   1.00000   1.00000

 Dipole moment (field-independent basis, Debye):
    X=             18.8740    Y=              6.3228    Z=              4.3507  Tot=             20.3748
 Quadrupole moment (field-independent basis, Debye-Ang):
   XX=           -308.1885   YY=           -240.9139   ZZ=           -257.4525
   XY=             39.2864   XZ=             -8.8809   YZ=            -10.3360

 Normal termination of Gaussian 16 at Mon Feb  6 16:10:16 2023.
