 Gaussian 16, Revision A.03,
 Gaussian 16:  AM64L-G16RevA.03 25-Dec-2016

 ----------------------------------------------------------------------
 # PBE1PBE/def2TZVP scf=maxcycle=999 empiricaldispersion=GD3BJ int=(gri
 d=ultrafine) geom=check pop=nbo
 ----------------------------------------------------------------------

 ----------
 1cyo_III_H
 ----------
 Structure from the checkpoint file:  "1cyo_III_H.chk"
 Charge =  1 Multiplicity = 6

                         Standard orientation:
 ---------------------------------------------------------------------
 Center     Atomic      Atomic             Coordinates (Angstroms)
 Number     Number       Type             X           Y           Z
 ---------------------------------------------------------------------
      1          6           0       -1.962559   -0.036319    5.564935
      2          6           0       -1.551768    0.475254    4.219101
      3          7           0       -1.424686    1.823566    3.903122
      4          6           0       -1.293457   -0.308189    3.116329
      5          6           0       -1.114310    1.842021    2.619173
      6          7           0       -1.015390    0.649205    2.139599
      7          6           0        0.189905   -2.394504   -4.751453
      8          6           0       -0.027358   -1.350459   -3.668995
      9          7           0       -0.375681   -0.041459   -3.942193
     10          6           0       -0.010297   -1.548008   -2.275641
     11          6           0       -0.595972    0.519120   -2.739329
     12          7           0       -0.387956   -0.303755   -1.774543
     13          6           0        2.621510   -0.127597    0.689370
     14          6           0       -1.103885   -3.192100    0.943366
     15          6           0       -4.035885    0.363291   -0.601650
     16          6           0       -0.380271    3.485120   -0.432248
     17          6           0        1.878770   -1.298590    0.771402
     18          6           0        2.416081   -2.648903    1.027135
     19          6           0        1.360932   -3.511410    1.177622
     20          6           0        0.184602   -2.695737    0.977954
     21          6           0        1.404456   -5.008193    1.481740
     22          6           0        3.886876   -3.013139    1.062170
     23          6           0        4.520034   -2.906928   -0.316648
     24          6           0        3.900106   -3.860221   -1.317908
     25          8           0        3.737891   -5.049722   -0.988472
     26          8           0        3.608511   -3.442968   -2.453824
     27          6           0       -2.236614   -2.474055    0.567589
     28          6           0       -3.568317   -3.048068    0.460915
     29          6           0       -4.380757   -2.050293   -0.040942
     30          6           0       -3.553154   -0.872276   -0.165282
     31          6           0       -3.932807   -4.506238    0.740881
     32          6           0       -5.680821   -2.122982   -0.590444
     33          6           0       -6.817362   -2.725408   -0.100259
     34          6           0       -3.295575    1.503889   -0.711375
     35          6           0       -3.859317    2.797227   -1.155075
     36          6           0       -2.812489    3.673735   -1.103454
     37          6           0       -1.643697    2.934192   -0.607519
     38          6           0       -5.326140    3.011580   -1.606043
     39          6           0       -2.815619    5.034126   -1.442452
     40          6           0       -3.856320    5.873357   -1.076683
     41          6           0        0.771452    2.803724   -0.118263
     42          6           0        2.066880    3.402076    0.066415
     43          6           0        2.886037    2.398531    0.425693
     44          6           0        2.131087    1.151173    0.389326
     45          6           0        2.457625    4.857161   -0.148381
     46          6           0        4.312482    2.535824    0.898676
     47          6           0        5.264139    2.421030   -0.267077
     48          6           0        6.708125    2.428947    0.175654
     49          8           0        7.468476    1.563629   -0.305490
     50          8           0        7.087801    3.306065    0.987451
     51          7           0        0.518526   -1.337814    0.686132
     52          7           0       -2.235429   -1.119498    0.192405
     53          7           0       -1.944689    1.598588   -0.399517
     54          7           0        0.813405    1.420864    0.094567
     55         26           0       -0.712757    0.132434    0.153253
     56          1           0        0.169633   -1.922464   -5.711488
     57          1           0        1.139006   -2.866732   -4.606164
     58          1           0       -0.585933   -3.129499   -4.698940
     59          1           0        0.233416   -2.437403   -1.732980
     60          1           0       -0.448242    0.394456   -4.839251
     61          1           0       -0.908366    1.533218   -2.601803
     62          1           0       -1.542362    2.606851    4.513546
     63          1           0       -0.963890    2.734741    2.048800
     64          1           0       -1.303373   -1.374699    3.030550
     65          1           0       -2.053552   -1.101835    5.528934
     66          1           0       -1.223743    0.234253    6.290085
     67          1           0       -2.903952    0.393030    5.837587
     68          1           0       -3.716144    6.589853   -0.294453
     69          1           0       -4.799891    5.804722   -1.576546
     70          1           0       -1.993475    5.434810   -1.997818
     71          1           0       -5.597165    2.253144   -2.310473
     72          1           0       -5.972647    2.955610   -0.755281
     73          1           0       -5.421529    3.974007   -2.063793
     74          1           0       -5.069694    0.419969   -0.871698
     75          1           0       -7.251463   -3.552971   -0.621407
     76          1           0       -7.266694   -2.366107    0.801907
     77          1           0       -5.800254   -1.633568   -1.534430
     78          1           0       -3.633906   -5.113965   -0.087506
     79          1           0       -3.429206   -4.836259    1.625399
     80          1           0       -4.990401   -4.588999    0.880686
     81          1           0       -1.243520   -4.213725    1.229169
     82          1           0        1.771404   -5.535485    0.626046
     83          1           0        2.053028   -5.184264    2.314358
     84          1           0        0.419414   -5.352979    1.717780
     85          1           0        4.401917   -1.905506   -0.674562
     86          1           0        5.564599   -3.123804   -0.234501
     87          1           0        3.989888   -4.017105    1.417616
     88          1           0        4.394954   -2.351208    1.731949
     89          1           0        3.531656   -4.058755   -3.186285
     90          1           0        4.526154    1.762960    1.607142
     91          1           0        4.439735    3.489653    1.366562
     92          1           0        5.065845    1.508017   -0.788601
     93          1           0        5.100143    3.243551   -0.931504
     94          1           0        7.329559    1.247062   -1.201083
     95          1           0        1.973948    5.230411   -1.026811
     96          1           0        2.155090    5.436500    0.698814
     97          1           0        3.518562    4.927615   -0.268164
     98          1           0        3.672354   -0.209668    0.873462
     99          1           0       -0.295447    4.544812   -0.553726
 ---------------------------------------------------------------------

 SCF Done:  E(UPBE1PBE) =  -3627.34525528     A.U. after   71 cycles

 Alpha virt. eigenvalues --    1.04520   1.04731   1.05298   1.05683   1.05982
 Alpha virt. eigenvalues --    1.06411   1.06833   1.07254   1.07588   1.07755
 Alpha virt. eigenvalues --    1.07995   1.08217   1.08380   1.08773   1.09174

  Beta  occ. eigenvalues -- -256.50732 -30.25369 -26.09585 -26.07889 -26.07506
  Beta  occ. eigenvalues --  -19.34934 -19.33695 -19.25294 -19.24343 -14.54958
  Beta  occ. eigenvalues --  -14.54132 -14.49771 -14.49556 -14.49178 -14.48469
  Beta  occ. eigenvalues --  -14.47357 -14.46794 -10.43117 -10.41986 -10.38038
  Beta  occ. eigenvalues --  -10.37455 -10.36926 -10.36041 -10.35662 -10.35521
  Beta  occ. eigenvalues --  -10.35490 -10.35451 -10.35196 -10.35154 -10.34953
  Beta  occ. eigenvalues --  -10.34842 -10.34308 -10.33393 -10.32961 -10.32874
  Beta  occ. eigenvalues --  -10.32478 -10.32354 -10.32043 -10.32042 -10.32023
  Beta  occ. eigenvalues --  -10.31743 -10.31727 -10.31687 -10.31619 -10.31522
  Beta  occ. eigenvalues --  -10.31487 -10.31439 -10.31248 -10.30937 -10.30781
  Beta  occ. eigenvalues --  -10.30775 -10.30512 -10.30494 -10.30387 -10.30053
  Beta  occ. eigenvalues --  -10.29585 -10.29448 -10.29418 -10.29218  -3.55956
  Beta  occ. eigenvalues --   -2.33657  -2.29710  -2.28575  -1.25654  -1.24112
  Beta  occ. eigenvalues --   -1.16183  -1.15993  -1.10478  -1.09214  -1.08171
  Beta  occ. eigenvalues --   -1.07197  -1.06436  -1.05653  -1.01914  -1.00830
  Beta  occ. eigenvalues --   -0.93702  -0.92935  -0.92749  -0.92541  -0.92161
  Beta  occ. eigenvalues --   -0.90954  -0.90733  -0.90063  -0.90045  -0.88338
  Beta  occ. eigenvalues --   -0.87631  -0.86275  -0.85433  -0.84806  -0.82644
  Beta  occ. eigenvalues --   -0.81968  -0.81561  -0.81126  -0.80968  -0.80561
  Beta  occ. eigenvalues --   -0.79209  -0.78928  -0.77330  -0.75813  -0.75318
  Beta  occ. eigenvalues --   -0.74980  -0.74242  -0.74168  -0.73267  -0.72093
  Beta  occ. eigenvalues --   -0.71802  -0.70769  -0.69993  -0.69073  -0.67671
  Beta  occ. eigenvalues --   -0.66419  -0.65813  -0.65220  -0.64291  -0.63480
  Beta  occ. eigenvalues --   -0.63283  -0.62194  -0.61876  -0.61245  -0.60810
  Beta  occ. eigenvalues --   -0.60001  -0.59309  -0.58965  -0.58623  -0.58194
  Beta  occ. eigenvalues --   -0.58063  -0.57666  -0.57568  -0.57446  -0.57393
  Beta  occ. eigenvalues --   -0.57007  -0.56194  -0.55691  -0.55468  -0.54940
  Beta  occ. eigenvalues --   -0.54860  -0.54375  -0.54006  -0.53765  -0.53646
  Beta  occ. eigenvalues --   -0.53420  -0.53328  -0.53072  -0.52658  -0.52579
  Beta  occ. eigenvalues --   -0.52388  -0.52238  -0.51878  -0.51621  -0.51499
  Beta  occ. eigenvalues --   -0.51416  -0.51326  -0.51110  -0.50923  -0.50653
  Beta  occ. eigenvalues --   -0.50459  -0.50040  -0.50006  -0.49795  -0.49675
  Beta  occ. eigenvalues --   -0.49502  -0.49173  -0.49091  -0.48569  -0.48507
  Beta  occ. eigenvalues --   -0.48297  -0.47947  -0.47513  -0.47319  -0.47135
  Beta  occ. eigenvalues --   -0.47009  -0.46745  -0.46322  -0.45548  -0.45345
  Beta  occ. eigenvalues --   -0.45105  -0.44565  -0.44191  -0.43554  -0.43180
  Beta  occ. eigenvalues --   -0.43162  -0.42902  -0.42396  -0.42095  -0.41513
  Beta  occ. eigenvalues --   -0.40405  -0.40133  -0.39133  -0.38717  -0.38066
  Beta  occ. eigenvalues --   -0.37626  -0.36041  -0.35776  -0.34949  -0.34748
  Beta  occ. eigenvalues --   -0.34039  -0.33725  -0.32971  -0.32384  -0.30084
  Beta  occ. eigenvalues --   -0.29397  -0.27546
  Beta virt. eigenvalues --   -0.18948  -0.17661  -0.16746  -0.16068  -0.13983
  Beta virt. eigenvalues --   -0.12822  -0.11816  -0.10406  -0.09324  -0.08034
  Beta virt. eigenvalues --   -0.07596  -0.07308  -0.06942  -0.06741  -0.06303

 Mulliken charges and spin densities:
               1          2
     1  C   -0.384970   0.000430
     2  C    0.173338   0.000354
     3  N   -0.215714   0.001658
     4  C   -0.206080   0.001429
     5  C    0.029423   0.005029
     6  N    0.050798   0.002163
     7  C   -0.353666   0.000347
     8  C    0.107150   0.002333
     9  N   -0.214154   0.002608
    10  C   -0.173106   0.000866
    11  C    0.024039   0.009545
    12  N    0.126361  -0.000027
    13  C   -0.549839  -0.065675
    14  C   -0.554770  -0.040957
    15  C   -0.492123   0.053166
    16  C   -0.579154   0.010855
    17  C    0.277525   0.042020
    18  C   -0.118959   0.004158
    19  C   -0.062106  -0.001569
    20  C    0.279291   0.037093
    21  C   -0.410866  -0.000699
    22  C   -0.171652  -0.001496
    23  C   -0.180378   0.000551
    24  C    0.275341  -0.000068
    25  O   -0.381860  -0.000069
    26  O   -0.324521  -0.000002
    27  C    0.257040   0.059447
    28  C   -0.060176  -0.158636
    29  C   -0.000452   0.178778
    30  C    0.279980  -0.049433
    31  C   -0.386825   0.009956
    32  C   -0.216850  -0.642626
    33  C   -0.301599   0.786393
    34  C    0.296518  -0.058843
    35  C   -0.114390   0.255246
    36  C    0.072087  -0.185534
    37  C    0.138249   0.013058
    38  C   -0.378685  -0.012017
    39  C   -0.206986   0.787810
    40  C   -0.283305   1.018740
    41  C    0.314146  -0.003213
    42  C   -0.104449   0.029886
    43  C    0.057495  -0.004797
    44  C    0.270466   0.051854
    45  C   -0.400938  -0.000931
    46  C   -0.384270   0.001003
    47  C   -0.254897  -0.000141
    48  C    0.322359   0.000038
    49  O   -0.298538   0.000002
    50  O   -0.356515   0.000039
    51  N   -0.004746  -0.096048
    52  N   -0.019484   0.019401
    53  N   -0.011562  -0.013439
    54  N   -0.035285   0.027003
    55  Fe  -0.259128   2.955497
    56  H    0.129852   0.000031
    57  H    0.131279   0.000042
    58  H    0.159725   0.000083
    59  H    0.170038   0.000799
    60  H    0.252522   0.000972
    61  H    0.180857   0.001245
    62  H    0.253588   0.001134
    63  H    0.185800   0.000952
    64  H    0.171318   0.000681
    65  H    0.145287   0.000010
    66  H    0.147815   0.000182
    67  H    0.143996  -0.000116
    68  H    0.155656  -0.004781
    69  H    0.145617   0.001876
    70  H    0.149941   0.000881
    71  H    0.141626   0.005323
    72  H    0.161131   0.008483
    73  H    0.132791  -0.001871
    74  H    0.145252  -0.004587
    75  H    0.159961  -0.055650
    76  H    0.155792  -0.058608
    77  H    0.143185   0.068819
    78  H    0.151696  -0.006517
    79  H    0.137632  -0.002367
    80  H    0.160199  -0.000063
    81  H    0.113956   0.002139
    82  H    0.186776   0.000141
    83  H    0.147717   0.000152
    84  H    0.126580  -0.000043
    85  H    0.107218   0.000019
    86  H    0.143672   0.000249
    87  H    0.138419  -0.000348
    88  H    0.133002   0.000261
    89  H    0.351752   0.000001
    90  H    0.138743  -0.000207
    91  H    0.167276   0.000130
    92  H    0.115629   0.000094
    93  H    0.139188   0.000023
    94  H    0.347127   0.000000
    95  H    0.141814   0.000586
    96  H    0.155140   0.001258
    97  H    0.150802   0.000406
    98  H    0.139266   0.002839
    99  H    0.144759   0.002811
 Sum of Mulliken charges =   1.00000   5.00000

 Dipole moment (field-independent basis, Debye):
    X=             -5.8957    Y=              0.8896    Z=             -4.5472  Tot=              7.4985
 Quadrupole moment (field-independent basis, Debye-Ang):
   XX=           -286.6705   YY=           -278.9448   ZZ=           -243.1139
   XY=            -20.5791   XZ=            -30.4449   YZ=              2.6883

 Summary of Natural Population Analysis:

                                       Natural Population
                Natural  -----------------------------------------------
    Atom  No    Charge         Core      Valence    Rydberg      Total
 -----------------------------------------------------------------------
      C    1   -0.32091      0.99969     2.31814    0.00308     3.32091
      C    2    0.06755      0.99958     1.92427    0.00861     2.93245
      N    3   -0.24153      0.99968     2.73211    0.00974     3.74153
      C    4   -0.04114      0.99946     2.03260    0.00907     3.04114
      C    5    0.10926      0.99962     1.88016    0.01096     2.89074
      N    6   -0.18216      0.99969     2.65547    0.02699     3.68216
      C    7   -0.32050      0.99969     2.31770    0.00310     3.32050
      C    8    0.07033      0.99964     1.92124    0.00879     2.92967
      N    9   -0.24098      0.99969     2.73163    0.00965     3.74098
      C   10   -0.04326      0.99951     2.03508    0.00867     3.04326
      C   11    0.11070      0.99962     1.87867    0.01101     2.88930
      N   12   -0.17183      0.99966     2.64626    0.02590     3.67183
      C   13   -0.14280      0.99950     2.13501    0.00829     3.14280
      C   14   -0.13337      0.99947     2.12591    0.00799     3.13337
      C   15   -0.09068      0.99947     2.08322    0.00799     3.09068
      C   16   -0.13219      0.99947     2.12461    0.00810     3.13219
      C   17    0.09929      0.99951     1.89076    0.01044     2.90071
      C   18   -0.00574      0.99947     1.99738    0.00890     3.00574
      C   19   -0.00348      0.99942     1.99578    0.00828     3.00348
      C   20    0.09021      0.99946     1.90029    0.01004     2.90979
      C   21   -0.32095      0.99969     2.31498    0.00628     3.32095
      C   22   -0.21417      0.99966     2.20712    0.00739     3.21417
      C   23   -0.24732      0.99962     2.23929    0.00840     3.24732
      C   24    0.38505      0.99977     1.59672    0.01847     2.61495
      O   25   -0.31145      0.99989     3.29910    0.01246     4.31145
      O   26   -0.32256      0.99981     3.30912    0.01363     4.32256
      C   27    0.10083      0.99951     1.88996    0.00970     2.89917
      C   28   -0.05406      0.99947     2.04634    0.00825     3.05406
      C   29    0.01601      0.99943     1.97431    0.01024     2.98399
      C   30    0.07221      0.99953     1.91820    0.01007     2.92779
      C   31   -0.31700      0.99969     2.31346    0.00385     3.31700
      C   32   -0.37630      0.99963     2.36534    0.01133     3.37630
      C   33    0.18302      0.99966     1.80932    0.00801     2.81698
      C   34    0.04790      0.99949     1.94233    0.01028     2.95210
      C   35    0.12465      0.99943     1.86804    0.00788     2.87535
      C   36   -0.10735      0.99943     2.09857    0.00935     3.10735
      C   37    0.09958      0.99952     1.89084    0.01006     2.90042
      C   38   -0.32392      0.99969     2.32091    0.00333     3.32392
      C   39    0.26605      0.99960     1.72650    0.00785     2.73395
      C   40    0.32405      0.99968     1.66942    0.00686     2.67595
      C   41    0.08229      0.99949     1.90844    0.00978     2.91771
      C   42    0.00369      0.99938     1.98856    0.00837     2.99631
      C   43   -0.00716      0.99942     1.99841    0.00933     3.00716
      C   44    0.11018      0.99953     1.88069    0.00960     2.88982
      C   45   -0.32002      0.99970     2.31665    0.00368     3.32002
      C   46   -0.21084      0.99966     2.20341    0.00777     3.21084
      C   47   -0.25425      0.99963     2.24608    0.00855     3.25425
      C   48    0.37998      0.99974     1.60310    0.01718     2.62002
      O   49   -0.31667      0.99980     3.30143    0.01544     4.31667
      O   50   -0.28658      0.99989     3.27495    0.01174     4.28658
      N   51   -0.24542      0.99968     2.71960    0.02613     3.74542
      N   52   -0.18496      0.99969     2.66784    0.01742     3.68496
      N   53   -0.20760      0.99969     2.68240    0.02551     3.70760
      N   54   -0.18639      0.99970     2.66845    0.01823     3.68639
     Fe   55    1.67145      8.99482     2.30410    0.02963    11.32855
      H   56    0.11048      0.00000     0.38894    0.00058     0.38952
      H   57    0.11432      0.00000     0.38501    0.00067     0.38568
      H   58    0.11895      0.00000     0.38047    0.00058     0.38105
      H   59    0.12269      0.00000     0.37639    0.00092     0.37731
      H   60    0.21606      0.00000     0.28315    0.00079     0.28394
      H   61    0.11312      0.00000     0.38592    0.00096     0.38688
      H   62    0.21587      0.00000     0.28336    0.00077     0.28413
      H   63    0.11231      0.00000     0.38686    0.00083     0.38769
      H   64    0.12281      0.00000     0.37638    0.00080     0.37719
      H   65    0.11809      0.00000     0.38147    0.00045     0.38191
      H   66    0.11338      0.00000     0.38594    0.00068     0.38662
      H   67    0.11272      0.00000     0.38661    0.00067     0.38728
      H   68    0.10526      0.00000     0.39429    0.00046     0.39474
      H   69    0.09963      0.00000     0.39976    0.00061     0.40037
      H   70    0.11183      0.00000     0.38729    0.00088     0.38817
      H   71    0.11509      0.00000     0.38425    0.00066     0.38491
      H   72    0.12073      0.00000     0.37866    0.00062     0.37927
      H   73    0.11419      0.00000     0.38513    0.00069     0.38581
      H   74    0.11496      0.00000     0.38378    0.00126     0.38504
      H   75    0.07840      0.00000     0.42061    0.00099     0.42160
      H   76    0.07649      0.00000     0.42208    0.00143     0.42351
      H   77    0.13220      0.00000     0.36670    0.00110     0.36780
      H   78    0.11207      0.00000     0.38707    0.00087     0.38793
      H   79    0.11111      0.00000     0.38822    0.00067     0.38889
      H   80    0.11882      0.00000     0.38055    0.00063     0.38118
      H   81    0.11624      0.00000     0.38227    0.00149     0.38376
      H   82    0.12833      0.00000     0.37109    0.00058     0.37167
      H   83    0.11656      0.00000     0.38287    0.00058     0.38344
      H   84    0.10788      0.00000     0.39171    0.00041     0.39212
      H   85    0.10787      0.00000     0.39143    0.00069     0.39213
      H   86    0.12454      0.00000     0.37488    0.00059     0.37546
      H   87    0.12259      0.00000     0.37662    0.00079     0.37741
      H   88    0.11307      0.00000     0.38624    0.00069     0.38693
      H   89    0.25689      0.00000     0.24159    0.00152     0.24311
      H   90    0.11068      0.00000     0.38835    0.00096     0.38932
      H   91    0.12329      0.00000     0.37597    0.00073     0.37671
      H   92    0.09945      0.00000     0.39968    0.00087     0.40055
      H   93    0.11790      0.00000     0.38142    0.00067     0.38210
      H   94    0.25171      0.00000     0.24726    0.00103     0.24829
      H   95    0.11335      0.00000     0.38600    0.00065     0.38665
      H   96    0.11601      0.00000     0.38326    0.00073     0.38399
      H   97    0.11499      0.00000     0.38434    0.00068     0.38501
      H   98    0.11156      0.00000     0.38732    0.00111     0.38844
      H   99    0.11676      0.00000     0.38222    0.00102     0.38324
 =======================================================================
   * Total *    3.00000     62.97330   138.38367    0.64303   202.00000

 Normal termination of Gaussian 16 at Fri Mar 17 21:50:41 2023.
