 Gaussian 16, Revision A.03,
 Gaussian 16:  ES64L-G16RevA.03 25-Dec-2016

 ----------------------------------------------------------------------
 # PBE1PBE/def2TZVP empiricaldispersion=GD3BJ scf=maxcycle=999 geom=che
 ck pop=nbo
 ----------------------------------------------------------------------

 ---------
 1cyo_II_Q
 ---------
 Structure from the checkpoint file:  "1cyo_II_Q.chk"
 Charge =  0 Multiplicity = 5

                         Standard orientation:
 ---------------------------------------------------------------------
 Center     Atomic      Atomic             Coordinates (Angstroms)
 Number     Number       Type             X           Y           Z
 ---------------------------------------------------------------------
      1          6           0       -1.962559   -0.036319    5.564935
      2          6           0       -1.551768    0.475254    4.219101
      3          7           0       -1.424686    1.823566    3.903122
      4          6           0       -1.293457   -0.308189    3.116329
      5          6           0       -1.114310    1.842021    2.619173
      6          7           0       -1.015390    0.649205    2.139599
      7          6           0        0.189905   -2.394504   -4.751453
      8          6           0       -0.027358   -1.350459   -3.668995
      9          7           0       -0.375681   -0.041459   -3.942193
     10          6           0       -0.010297   -1.548008   -2.275641
     11          6           0       -0.595972    0.519120   -2.739329
     12          7           0       -0.387956   -0.303755   -1.774543
     13          6           0        2.621510   -0.127597    0.689370
     14          6           0       -1.103885   -3.192100    0.943366
     15          6           0       -4.035885    0.363291   -0.601650
     16          6           0       -0.380271    3.485120   -0.432248
     17          6           0        1.878770   -1.298590    0.771402
     18          6           0        2.416081   -2.648903    1.027135
     19          6           0        1.360932   -3.511410    1.177622
     20          6           0        0.184602   -2.695737    0.977954
     21          6           0        1.404456   -5.008193    1.481740
     22          6           0        3.886876   -3.013139    1.062170
     23          6           0        4.520034   -2.906928   -0.316648
     24          6           0        3.900106   -3.860221   -1.317908
     25          8           0        3.737891   -5.049722   -0.988472
     26          8           0        3.608511   -3.442968   -2.453824
     27          6           0       -2.236614   -2.474055    0.567589
     28          6           0       -3.568317   -3.048068    0.460915
     29          6           0       -4.380757   -2.050293   -0.040942
     30          6           0       -3.553154   -0.872276   -0.165282
     31          6           0       -3.932807   -4.506238    0.740881
     32          6           0       -5.680821   -2.122982   -0.590444
     33          6           0       -6.817362   -2.725408   -0.100259
     34          6           0       -3.295575    1.503889   -0.711375
     35          6           0       -3.859317    2.797227   -1.155075
     36          6           0       -2.812489    3.673735   -1.103454
     37          6           0       -1.643697    2.934192   -0.607519
     38          6           0       -5.326140    3.011580   -1.606043
     39          6           0       -2.815619    5.034126   -1.442452
     40          6           0       -3.856320    5.873357   -1.076683
     41          6           0        0.771452    2.803724   -0.118263
     42          6           0        2.066880    3.402076    0.066415
     43          6           0        2.886037    2.398531    0.425693
     44          6           0        2.131087    1.151173    0.389326
     45          6           0        2.457625    4.857161   -0.148381
     46          6           0        4.312482    2.535824    0.898676
     47          6           0        5.264139    2.421030   -0.267077
     48          6           0        6.708125    2.428947    0.175654
     49          8           0        7.468476    1.563629   -0.305490
     50          8           0        7.087801    3.306065    0.987451
     51          7           0        0.518526   -1.337814    0.686132
     52          7           0       -2.235429   -1.119498    0.192405
     53          7           0       -1.944689    1.598588   -0.399517
     54          7           0        0.813405    1.420864    0.094567
     55         26           0       -0.712757    0.132434    0.153253
     56          1           0        0.169633   -1.922464   -5.711488
     57          1           0        1.139006   -2.866732   -4.606164
     58          1           0       -0.585933   -3.129499   -4.698940
     59          1           0        0.233416   -2.437403   -1.732980
     60          1           0       -0.448242    0.394456   -4.839251
     61          1           0       -0.908366    1.533218   -2.601803
     62          1           0       -1.542362    2.606851    4.513546
     63          1           0       -0.963890    2.734741    2.048800
     64          1           0       -1.303373   -1.374699    3.030550
     65          1           0       -2.053552   -1.101835    5.528934
     66          1           0       -1.223743    0.234253    6.290085
     67          1           0       -2.903952    0.393030    5.837587
     68          1           0       -3.716144    6.589853   -0.294453
     69          1           0       -4.799891    5.804722   -1.576546
     70          1           0       -1.993475    5.434810   -1.997818
     71          1           0       -5.597165    2.253144   -2.310473
     72          1           0       -5.972647    2.955610   -0.755281
     73          1           0       -5.421529    3.974007   -2.063793
     74          1           0       -5.069694    0.419969   -0.871698
     75          1           0       -7.251463   -3.552971   -0.621407
     76          1           0       -7.266694   -2.366107    0.801907
     77          1           0       -5.800254   -1.633568   -1.534430
     78          1           0       -3.633906   -5.113965   -0.087506
     79          1           0       -3.429206   -4.836259    1.625399
     80          1           0       -4.990401   -4.588999    0.880686
     81          1           0       -1.243520   -4.213725    1.229169
     82          1           0        1.771404   -5.535485    0.626046
     83          1           0        2.053028   -5.184264    2.314358
     84          1           0        0.419414   -5.352979    1.717780
     85          1           0        4.401917   -1.905506   -0.674562
     86          1           0        5.564599   -3.123804   -0.234501
     87          1           0        3.989888   -4.017105    1.417616
     88          1           0        4.394954   -2.351208    1.731949
     89          1           0        3.531656   -4.058755   -3.186285
     90          1           0        4.526154    1.762960    1.607142
     91          1           0        4.439735    3.489653    1.366562
     92          1           0        5.065845    1.508017   -0.788601
     93          1           0        5.100143    3.243551   -0.931504
     94          1           0        7.329559    1.247062   -1.201083
     95          1           0        1.973948    5.230411   -1.026811
     96          1           0        2.155090    5.436500    0.698814
     97          1           0        3.518562    4.927615   -0.268164
     98          1           0        3.672354   -0.209668    0.873462
     99          1           0       -0.295447    4.544812   -0.553726
 ---------------------------------------------------------------------

 SCF Done:  E(UPBE1PBE) =  -3627.52123982     A.U. after   91 cycles

 Alpha virt. eigenvalues --    1.14086   1.14314   1.14990   1.15212   1.15421
 Alpha virt. eigenvalues --    1.16130   1.16262   1.16734   1.16968   1.17343
 Alpha virt. eigenvalues --    1.17634   1.17732   1.17888   1.18429   1.18752

  Beta  occ. eigenvalues -- -256.39153 -30.15723 -25.98771 -25.98549 -25.97827
  Beta  occ. eigenvalues --  -19.27326 -19.26748 -19.17567 -19.17197 -14.46455
  Beta  occ. eigenvalues --  -14.45749 -14.41485 -14.40389 -14.36990 -14.36967
  Beta  occ. eigenvalues --  -14.36888 -14.36631 -10.35313 -10.34676 -10.29214
  Beta  occ. eigenvalues --  -10.28744 -10.28355 -10.27164 -10.25651 -10.24773
  Beta  occ. eigenvalues --  -10.24155 -10.24106 -10.23887 -10.23686 -10.23672
  Beta  occ. eigenvalues --  -10.23607 -10.23342 -10.23067 -10.23038 -10.22881
  Beta  occ. eigenvalues --  -10.22828 -10.22473 -10.21980 -10.21954 -10.21877
  Beta  occ. eigenvalues --  -10.21782 -10.21421 -10.21241 -10.21047 -10.20940
  Beta  occ. eigenvalues --  -10.20922 -10.20894 -10.20843 -10.20703 -10.20616
  Beta  occ. eigenvalues --  -10.20608 -10.20222 -10.20207 -10.20199 -10.19746
  Beta  occ. eigenvalues --  -10.19557 -10.19218 -10.18494 -10.18493  -3.48010
  Beta  occ. eigenvalues --   -2.23314  -2.23240  -2.22723  -1.18013  -1.17117
  Beta  occ. eigenvalues --   -1.07602  -1.07509  -1.02762  -1.02105  -0.96425
  Beta  occ. eigenvalues --   -0.95357  -0.95121  -0.94109  -0.93314  -0.92327
  Beta  occ. eigenvalues --   -0.83383  -0.83247  -0.82145  -0.81877  -0.81834
  Beta  occ. eigenvalues --   -0.81684  -0.80848  -0.79834  -0.79544  -0.78442
  Beta  occ. eigenvalues --   -0.77447  -0.75570  -0.74505  -0.73745  -0.73628
  Beta  occ. eigenvalues --   -0.73021  -0.72953  -0.72135  -0.70918  -0.70055
  Beta  occ. eigenvalues --   -0.69948  -0.69447  -0.68273  -0.66501  -0.66215
  Beta  occ. eigenvalues --   -0.65805  -0.65124  -0.63846  -0.63463  -0.63405
  Beta  occ. eigenvalues --   -0.63193  -0.60185  -0.59335  -0.57754  -0.57745
  Beta  occ. eigenvalues --   -0.57243  -0.56142  -0.54699  -0.53970  -0.53372
  Beta  occ. eigenvalues --   -0.52949  -0.52591  -0.51906  -0.51421  -0.50930
  Beta  occ. eigenvalues --   -0.50246  -0.50112  -0.49743  -0.49689  -0.49519
  Beta  occ. eigenvalues --   -0.49029  -0.48997  -0.48721  -0.48499  -0.47800
  Beta  occ. eigenvalues --   -0.47180  -0.46977  -0.46339  -0.46051  -0.45921
  Beta  occ. eigenvalues --   -0.45424  -0.44885  -0.44529  -0.44424  -0.44172
  Beta  occ. eigenvalues --   -0.44004  -0.43815  -0.43649  -0.43562  -0.43476
  Beta  occ. eigenvalues --   -0.43222  -0.42988  -0.42667  -0.42550  -0.42304
  Beta  occ. eigenvalues --   -0.42149  -0.41950  -0.41895  -0.41650  -0.41189
  Beta  occ. eigenvalues --   -0.40910  -0.40489  -0.39757  -0.39546  -0.39440
  Beta  occ. eigenvalues --   -0.39179  -0.39096  -0.38745  -0.38464  -0.38363
  Beta  occ. eigenvalues --   -0.38138  -0.37824  -0.37605  -0.37503  -0.37300
  Beta  occ. eigenvalues --   -0.36996  -0.36736  -0.36430  -0.35933  -0.35645
  Beta  occ. eigenvalues --   -0.35190  -0.34747  -0.34302  -0.33985  -0.33933
  Beta  occ. eigenvalues --   -0.33477  -0.32654  -0.32603  -0.32350  -0.31846
  Beta  occ. eigenvalues --   -0.30963  -0.30638  -0.30080  -0.28166  -0.28052
  Beta  occ. eigenvalues --   -0.27337  -0.26797  -0.26360  -0.25413  -0.25352
  Beta  occ. eigenvalues --   -0.25079  -0.24649  -0.23689  -0.22882  -0.21753
  Beta  occ. eigenvalues --   -0.18538  -0.17688  -0.16226
  Beta virt. eigenvalues --   -0.07881  -0.07714  -0.05260  -0.04052  -0.02414
  Beta virt. eigenvalues --   -0.02147  -0.01647   0.00064   0.00373   0.00920
  Beta virt. eigenvalues --    0.01162   0.01399   0.01696   0.01950   0.02090

 Mulliken charges and spin densities:
               1          2
     1  C   -0.394381  -0.000277
     2  C    0.183751  -0.001381
     3  N   -0.223370   0.001779
     4  C   -0.196955   0.000812
     5  C    0.038441   0.011037
     6  N    0.071223  -0.038825
     7  C   -0.362271  -0.000386
     8  C    0.116518   0.000133
     9  N   -0.221216   0.001170
    10  C   -0.164428   0.001547
    11  C    0.033578   0.012620
    12  N    0.148544  -0.040335
    13  C   -0.604052   0.206764
    14  C   -0.547335  -0.046158
    15  C   -0.546504   0.263504
    16  C   -0.566347  -0.094249
    17  C    0.269462  -0.046195
    18  C   -0.135276   0.072902
    19  C   -0.050103  -0.050406
    20  C    0.239138   0.081209
    21  C   -0.426624   0.003491
    22  C   -0.175144  -0.006736
    23  C   -0.168247   0.002638
    24  C    0.276230   0.000797
    25  O   -0.392527   0.000230
    26  O   -0.321994  -0.000015
    27  C    0.207932   0.124070
    28  C   -0.065966  -0.078917
    29  C   -0.009315   0.208709
    30  C    0.274967  -0.104591
    31  C   -0.407438   0.002155
    32  C   -0.227253  -0.561416
    33  C   -0.339148   0.763006
    34  C    0.304337  -0.116061
    35  C   -0.122455   0.320158
    36  C    0.087026  -0.236153
    37  C    0.084605   0.165291
    38  C   -0.392228  -0.018417
    39  C   -0.232060   0.806595
    40  C   -0.281664   1.023791
    41  C    0.269005   0.147440
    42  C   -0.105450  -0.020176
    43  C    0.046385   0.105572
    44  C    0.252769  -0.012713
    45  C   -0.417926  -0.000120
    46  C   -0.387174  -0.012680
    47  C   -0.248055   0.004412
    48  C    0.319947   0.001492
    49  O   -0.305415   0.000144
    50  O   -0.371253   0.000166
    51  N   -0.023862   0.042237
    52  N    0.023494   0.005131
    53  N   -0.033236   0.085258
    54  N    0.011425  -0.041746
    55  Fe  -0.340859   1.097287
    56  H    0.117871  -0.000052
    57  H    0.126400   0.000066
    58  H    0.156664   0.000083
    59  H    0.170692  -0.000253
    60  H    0.243015  -0.000305
    61  H    0.183949  -0.000492
    62  H    0.244054  -0.000416
    63  H    0.188554  -0.000169
    64  H    0.173657  -0.000068
    65  H    0.146185  -0.000014
    66  H    0.136152  -0.000030
    67  H    0.134628  -0.000096
    68  H    0.135063  -0.005328
    69  H    0.127822   0.000365
    70  H    0.130372  -0.002127
    71  H    0.133409   0.008697
    72  H    0.146239   0.011272
    73  H    0.119074  -0.001359
    74  H    0.121667  -0.015255
    75  H    0.128450  -0.049399
    76  H    0.129659  -0.056116
    77  H    0.115135   0.071628
    78  H    0.129681  -0.002671
    79  H    0.122867   0.000001
    80  H    0.149091   0.002344
    81  H    0.091731   0.002017
    82  H    0.172467  -0.001486
    83  H    0.130523  -0.000882
    84  H    0.121135  -0.000179
    85  H    0.110191   0.000053
    86  H    0.121815   0.000245
    87  H    0.121966   0.000272
    88  H    0.121069   0.003745
    89  H    0.341267   0.000007
    90  H    0.130528   0.003372
    91  H    0.150069   0.001900
    92  H    0.118234  -0.000874
    93  H    0.128393  -0.000097
    94  H    0.344453  -0.000016
    95  H    0.133346  -0.000362
    96  H    0.139319  -0.000209
    97  H    0.135355   0.000118
    98  H    0.109246  -0.011402
    99  H    0.117294   0.007880
 Sum of Mulliken charges =  -0.00000   4.00000

 Dipole moment (field-independent basis, Debye):
    X=             -0.5571    Y=              0.9510    Z=             -4.5917  Tot=              4.7221
 Quadrupole moment (field-independent basis, Debye-Ang):
   XX=           -370.5018   YY=           -339.3512   ZZ=           -260.9799
   XY=            -27.7292   XZ=            -36.2090   YZ=              8.8776

 Summary of Natural Population Analysis:

                                       Natural Population
                Natural  -----------------------------------------------
    Atom  No    Charge         Core      Valence    Rydberg      Total
 -----------------------------------------------------------------------
      C    1   -0.31977      0.99969     2.31702    0.00306     3.31977
      C    2    0.05679      0.99958     1.93460    0.00904     2.94321
      N    3   -0.24471      0.99968     2.73501    0.01002     3.74471
      C    4   -0.03209      0.99947     2.02365    0.00897     3.03209
      C    5    0.11659      0.99964     1.87285    0.01092     2.88341
      N    6   -0.17986      0.99967     2.65708    0.02311     3.67986
      C    7   -0.31998      0.99969     2.31704    0.00324     3.31998
      C    8    0.06080      0.99964     1.93183    0.00774     2.93920
      N    9   -0.24516      0.99969     2.73570    0.00977     3.74516
      C   10   -0.03358      0.99952     2.02518    0.00888     3.03358
      C   11    0.11634      0.99963     1.87297    0.01106     2.88366
      N   12   -0.17171      0.99964     2.64884    0.02323     3.67171
      C   13   -0.08542      0.99950     2.07721    0.00871     3.08542
      C   14   -0.13608      0.99947     2.12833    0.00827     3.13608
      C   15   -0.05078      0.99946     2.04294    0.00838     3.05078
      C   16   -0.16555      0.99948     2.15753    0.00854     3.16555
      C   17    0.07182      0.99953     1.91857    0.01008     2.92818
      C   18    0.00519      0.99946     1.98596    0.00939     2.99481
      C   19   -0.02560      0.99942     2.01748    0.00871     3.02560
      C   20    0.09018      0.99948     1.90013    0.01021     2.90982
      C   21   -0.31968      0.99969     2.31607    0.00392     3.31968
      C   22   -0.21307      0.99966     2.20581    0.00760     3.21307
      C   23   -0.24711      0.99962     2.23896    0.00853     3.24711
      C   24    0.38774      0.99976     1.59390    0.01860     2.61226
      O   25   -0.31609      0.99989     3.30375    0.01245     4.31609
      O   26   -0.32216      0.99981     3.30860    0.01376     4.32216
      C   27    0.10736      0.99951     1.88306    0.01006     2.89264
      C   28   -0.03530      0.99946     2.02724    0.00860     3.03530
      C   29    0.01597      0.99943     1.97409    0.01050     2.98403
      C   30    0.05878      0.99953     1.93148    0.01021     2.94122
      C   31   -0.31712      0.99970     2.31359    0.00383     3.31712
      C   32   -0.33451      0.99963     2.32292    0.01195     3.33451
      C   33    0.13542      0.99966     1.85834    0.00658     2.86458
      C   34    0.03461      0.99950     1.95588    0.01001     2.96539
      C   35    0.13925      0.99943     1.85301    0.00831     2.86075
      C   36   -0.11333      0.99943     2.10432    0.00958     3.11333
      C   37    0.13282      0.99953     1.85744    0.01021     2.86718
      C   38   -0.32491      0.99969     2.32186    0.00335     3.32491
      C   39    0.25308      0.99960     1.73901    0.00831     2.74692
      C   40    0.32029      0.99969     1.67572    0.00431     2.67971
      C   41    0.11753      0.99949     1.87286    0.01011     2.88247
      C   42   -0.02230      0.99938     2.01452    0.00840     3.02230
      C   43    0.02116      0.99941     1.96992    0.00951     2.97884
      C   44    0.08717      0.99954     1.90343    0.00986     2.91283
      C   45   -0.31792      0.99970     2.31444    0.00378     3.31792
      C   46   -0.21025      0.99967     2.20271    0.00787     3.21025
      C   47   -0.25349      0.99963     2.24518    0.00868     3.25349
      C   48    0.38213      0.99974     1.60073    0.01740     2.61787
      O   49   -0.32006      0.99980     3.30497    0.01529     4.32006
      O   50   -0.29403      0.99989     3.28246    0.01168     4.29403
      N   51   -0.18765      0.99967     2.66402    0.02395     3.68765
      N   52   -0.18247      0.99967     2.66124    0.02156     3.68247
      N   53   -0.16708      0.99968     2.64370    0.02371     3.66708
      N   54   -0.20387      0.99967     2.68197    0.02223     3.70387
     Fe   55    0.68341      8.99485     3.29785    0.02390    12.31659
      H   56    0.10648      0.00000     0.39291    0.00062     0.39352
      H   57    0.11204      0.00000     0.38724    0.00073     0.38796
      H   58    0.11706      0.00000     0.38230    0.00063     0.38294
      H   59    0.12513      0.00000     0.37397    0.00090     0.37487
      H   60    0.21259      0.00000     0.28656    0.00086     0.28741
      H   61    0.11770      0.00000     0.38136    0.00094     0.38230
      H   62    0.21231      0.00000     0.28689    0.00080     0.28769
      H   63    0.11618      0.00000     0.38299    0.00083     0.38382
      H   64    0.12564      0.00000     0.37357    0.00079     0.37436
      H   65    0.11763      0.00000     0.38192    0.00045     0.38237
      H   66    0.10897      0.00000     0.39029    0.00074     0.39103
      H   67    0.10921      0.00000     0.39006    0.00073     0.39079
      H   68    0.09823      0.00000     0.40113    0.00063     0.40177
      H   69    0.09381      0.00000     0.40533    0.00086     0.40619
      H   70    0.10684      0.00000     0.39222    0.00094     0.39316
      H   71    0.11315      0.00000     0.38615    0.00070     0.38685
      H   72    0.11737      0.00000     0.38198    0.00065     0.38263
      H   73    0.10879      0.00000     0.39049    0.00072     0.39121
      H   74    0.10648      0.00000     0.39222    0.00130     0.39352
      H   75    0.07355      0.00000     0.42516    0.00129     0.42645
      H   76    0.07247      0.00000     0.42579    0.00174     0.42753
      H   77    0.12511      0.00000     0.37364    0.00125     0.37489
      H   78    0.10658      0.00000     0.39242    0.00100     0.39342
      H   79    0.10673      0.00000     0.39256    0.00072     0.39327
      H   80    0.11555      0.00000     0.38373    0.00072     0.38445
      H   81    0.10853      0.00000     0.38992    0.00155     0.39147
      H   82    0.12204      0.00000     0.37720    0.00076     0.37796
      H   83    0.10976      0.00000     0.38947    0.00077     0.39024
      H   84    0.10638      0.00000     0.39303    0.00059     0.39362
      H   85    0.11127      0.00000     0.38799    0.00074     0.38873
      H   86    0.11839      0.00000     0.38095    0.00066     0.38161
      H   87    0.11741      0.00000     0.38177    0.00082     0.38259
      H   88    0.11101      0.00000     0.38826    0.00073     0.38899
      H   89    0.25373      0.00000     0.24461    0.00166     0.24627
      H   90    0.10986      0.00000     0.38913    0.00101     0.39014
      H   91    0.11842      0.00000     0.38085    0.00073     0.38158
      H   92    0.10088      0.00000     0.39822    0.00090     0.39912
      H   93    0.11602      0.00000     0.38327    0.00070     0.38398
      H   94    0.25088      0.00000     0.24806    0.00106     0.24912
      H   95    0.10964      0.00000     0.38962    0.00074     0.39036
      H   96    0.10968      0.00000     0.38946    0.00085     0.39032
      H   97    0.10896      0.00000     0.39031    0.00073     0.39104
      H   98    0.09953      0.00000     0.39930    0.00117     0.40047
      H   99    0.11025      0.00000     0.38864    0.00112     0.38975
 =======================================================================
   * Total *    2.00000     62.97333   139.38788    0.63879   203.00000

 Normal termination of Gaussian 16 at Tue Feb  7 12:18:13 2023.
