 Gaussian 16, Revision A.03,
 Gaussian 16:  ES64L-G16RevA.03 25-Dec-2016

 ----------------------------------------------------------------------
 # PBE1PBE/def2TZVP empiricaldispersion=GD3BJ int=(grid=ultrafine) geom
 =check pop=nbo
 ----------------------------------------------------------------------

 ----------
 1fhf_III_D
 ----------
 Structure from the checkpoint file:  "1fhf_III_D.chk"
 Charge =  1 Multiplicity = 2

                         Standard orientation:
 ---------------------------------------------------------------------
 Center     Atomic      Atomic             Coordinates (Angstroms)
 Number     Number       Type             X           Y           Z
 ---------------------------------------------------------------------
      1          6           0        1.574455    1.471442    5.288724
      2          6           0        1.478990    0.546920    4.091458
      3          7           0        1.923798   -0.780184    4.063819
      4          6           0        0.987139    0.908072    2.818344
      5          6           0        1.735495   -1.143950    2.750388
      6          7           0        1.208323   -0.206906    1.964709
      7          6           0       -2.526192    0.021684    0.217951
      8          6           0        0.745288   -3.574735   -0.267713
      9          6           0        4.285837   -0.286277   -0.862747
     10          6           0        1.060043    3.309501   -0.327218
     11          6           0       -1.962654   -1.248221    0.007234
     12          6           0       -2.747564   -2.536535    0.095671
     13          6           0       -1.799014   -3.529013   -0.044134
     14          6           0       -0.460496   -2.868148   -0.149965
     15          6           0       -2.058203   -5.046150   -0.071571
     16          6           0       -4.201906   -2.705018    0.639728
     17          6           0       -5.247258   -3.791751    0.294099
     18          6           0       -6.293227   -3.330954   -0.726464
     19          8           0       -6.867937   -2.237520   -0.545982
     20          8           0       -6.553513   -4.061824   -1.707278
     21          6           0        1.997533   -2.985463   -0.438172
     22          6           0        3.270645   -3.743646   -0.427193
     23          6           0        4.278133   -2.820638   -0.599353
     24          6           0        3.615894   -1.487770   -0.688674
     25          6           0        3.481572   -5.252671   -0.222994
     26          6           0        5.623445   -3.187713   -0.738130
     27          6           0        6.727166   -2.323102   -0.101069
     28          6           0        3.681894    0.956685   -0.861822
     29          6           0        4.384402    2.173846   -1.246275
     30          6           0        3.476134    3.187106   -1.157484
     31          6           0        2.219063    2.588805   -0.660039
     32          6           0        5.830301    2.288894   -1.724444
     33          6           0        3.676373    4.515237   -1.542431
     34          6           0        4.888638    5.298291   -1.004995
     35          6           0       -0.171354    2.710525   -0.008698
     36          6           0       -1.391958    3.433633    0.332542
     37          6           0       -2.389602    2.508832    0.460465
     38          6           0       -1.787427    1.211591    0.257239
     39          6           0       -1.518515    4.936155    0.541177
     40          6           0       -3.894104    2.757666    0.625123
     41          6           0       -4.478596    3.641028   -0.473852
     42          6           0       -5.986715    3.728601   -0.415519
     43          8           0       -6.524449    3.884452    0.699027
     44          8           0       -6.630647    3.652867   -1.482189
     45          7           0       -0.549766   -1.463686   -0.137979
     46          7           0        2.209905   -1.589673   -0.531478
     47          7           0        2.329562    1.186071   -0.573896
     48          7           0       -0.398483    1.313698   -0.003540
     49         26           0        0.910840   -0.139844   -0.257081
     50          1           0        1.995385   -2.115287    2.384519
     51          1           0        2.289178   -1.329601    4.815243
     52          1           0        0.535663    1.839861    2.548459
     53          1           0        0.984291    2.346255    5.111778
     54          1           0        1.211312    0.966297    6.159273
     55          1           0        2.595153    1.754441    5.440331
     56          1           0       -6.710018   -3.670121   -2.569644
     57          1           0       -4.736066   -4.644486   -0.101408
     58          1           0       -5.750617   -4.080290    1.193141
     59          1           0       -4.090160   -2.762809    1.702307
     60          1           0       -4.686743   -1.778671    0.412324
     61          1           0       -1.858315   -5.424455   -1.052301
     62          1           0       -1.416992   -5.530366    0.635030
     63          1           0       -3.079462   -5.238182    0.183486
     64          1           0       -3.585291    0.083825    0.357042
     65          1           0       -4.401266    1.815553    0.614674
     66          1           0       -4.062857    3.228964    1.570798
     67          1           0       -4.193154    3.242157   -1.424812
     68          1           0       -4.072252    4.626089   -0.376702
     69          1           0       -6.555520    4.349246   -2.138703
     70          1           0       -2.152433    5.349162   -0.215442
     71          1           0       -1.941836    5.128009    1.504967
     72          1           0       -0.550235    5.387455    0.480662
     73          1           0        1.117884    4.377872   -0.315437
     74          1           0        5.950575    3.194106   -2.282142
     75          1           0        6.485725    2.301231   -0.878769
     76          1           0        6.067605    1.451949   -2.347429
     77          1           0        5.345246   -0.324217   -1.008051
     78          1           0        3.964896   -5.664974   -1.083984
     79          1           0        4.092659   -5.413770    0.640441
     80          1           0        2.533969   -5.729576   -0.083313
     81          1           0        0.701117   -4.642911   -0.223565
     82          7           0        0.273493    0.160536   -2.097839
     83          6           0        0.456961    0.068650   -3.364113
     84          1           0        0.849630   -0.122781   -4.340876
     85          1           0        5.883763   -4.068724   -1.286725
     86          1           0        7.084780   -1.452134   -0.609427
     87          1           0        7.136425   -2.593334    0.849921
     88          1           0        2.987428    4.988262   -2.210641
     89          1           0        5.282130    6.123181   -1.561431
     90          1           0        5.337435    5.017472   -0.075144
 ---------------------------------------------------------------------

 SCF Done:  E(UPBE1PBE) =  -3455.22650568     A.U. after   92 cycles

 Alpha virt. eigenvalues --    0.66373   0.66627   0.66931   0.67137   0.67886
 Alpha virt. eigenvalues --    0.68025   0.68424   0.68603   0.68832   0.69040
 Alpha virt. eigenvalues --    0.69293   0.69529   0.69733   0.70333   0.70602

  Beta  occ. eigenvalues -- -256.52573 -30.29159 -26.12232 -26.12090 -26.11116
  Beta  occ. eigenvalues --  -19.33013 -19.31949 -19.24473 -19.24461 -14.57763
  Beta  occ. eigenvalues --  -14.55245 -14.51069 -14.49939 -14.49802 -14.49498
  Beta  occ. eigenvalues --  -14.49260 -10.45033 -10.42251 -10.41671 -10.39176
  Beta  occ. eigenvalues --  -10.36956 -10.36747 -10.36504 -10.36437 -10.36234
  Beta  occ. eigenvalues --  -10.35988 -10.35860 -10.35648 -10.35632 -10.34560
  Beta  occ. eigenvalues --  -10.34405 -10.33652 -10.33476 -10.33304 -10.33209
  Beta  occ. eigenvalues --  -10.33188 -10.33137 -10.32715 -10.32632 -10.32553
  Beta  occ. eigenvalues --  -10.32475 -10.32326 -10.32147 -10.32041 -10.32017
  Beta  occ. eigenvalues --  -10.31550 -10.31549 -10.31295 -10.31143 -10.30694
  Beta  occ. eigenvalues --  -10.30556 -10.30260 -10.30232 -10.30098 -10.29564
  Beta  occ. eigenvalues --   -3.61679  -2.37456  -2.37359  -2.35479  -1.23754
  Beta  occ. eigenvalues --   -1.23062  -1.14123  -1.09260  -1.09223  -1.07316
  Beta  occ. eigenvalues --   -1.06083  -1.05949  -1.04676  -1.04028  -1.01003
  Beta  occ. eigenvalues --   -0.93211  -0.92890  -0.92507  -0.92081  -0.91671
  Beta  occ. eigenvalues --   -0.90429  -0.90029  -0.89351  -0.87703  -0.87369
  Beta  occ. eigenvalues --   -0.85618  -0.85112  -0.84311  -0.82569  -0.81669
  Beta  occ. eigenvalues --   -0.80855  -0.80573  -0.80056  -0.78660  -0.78296
  Beta  occ. eigenvalues --   -0.77111  -0.75973  -0.75459  -0.74975  -0.74746
  Beta  occ. eigenvalues --   -0.73403  -0.72937  -0.72171  -0.71772  -0.71230
  Beta  occ. eigenvalues --   -0.68658  -0.67438  -0.65308  -0.64764  -0.64505
  Beta  occ. eigenvalues --   -0.64191  -0.63453  -0.61940  -0.61635  -0.60963
  Beta  occ. eigenvalues --   -0.60751  -0.60050  -0.59864  -0.58963  -0.58438
  Beta  occ. eigenvalues --   -0.57963  -0.57806  -0.57418  -0.56976  -0.56542
  Beta  occ. eigenvalues --   -0.56366  -0.56233  -0.55329  -0.55011  -0.54504
  Beta  occ. eigenvalues --   -0.54199  -0.53958  -0.53671  -0.53464  -0.53414
  Beta  occ. eigenvalues --   -0.53037  -0.52882  -0.52503  -0.52285  -0.52113
  Beta  occ. eigenvalues --   -0.51798  -0.51673  -0.51511  -0.51352  -0.51001
  Beta  occ. eigenvalues --   -0.50851  -0.50662  -0.50586  -0.50396  -0.50255
  Beta  occ. eigenvalues --   -0.50106  -0.49622  -0.49375  -0.49155  -0.48893
  Beta  occ. eigenvalues --   -0.48465  -0.48402  -0.48145  -0.48114  -0.47761
  Beta  occ. eigenvalues --   -0.47588  -0.47329  -0.47017  -0.46710  -0.46164
  Beta  occ. eigenvalues --   -0.45466  -0.45304  -0.45017  -0.44850  -0.44254
  Beta  occ. eigenvalues --   -0.43526  -0.43311  -0.42696  -0.42315  -0.41893
  Beta  occ. eigenvalues --   -0.41584  -0.41298  -0.39837  -0.39597  -0.39433
  Beta  occ. eigenvalues --   -0.38523  -0.37953  -0.37847  -0.36514  -0.35650
  Beta  occ. eigenvalues --   -0.34720  -0.34513  -0.33881  -0.33387  -0.33212
  Beta  occ. eigenvalues --   -0.31507  -0.29802  -0.29051  -0.26513
  Beta virt. eigenvalues --   -0.21054  -0.20095  -0.19636  -0.16701  -0.16194
  Beta virt. eigenvalues --   -0.14554  -0.13049  -0.12872  -0.11883  -0.09773
  Beta virt. eigenvalues --   -0.08711  -0.07618  -0.07315  -0.06398  -0.05989

 Mulliken charges and spin densities:
               1          2
     1  C   -0.371891  -0.000159
     2  C    0.125218  -0.001213
     3  N   -0.211510  -0.000594
     4  C   -0.174583   0.002085
     5  C    0.036475   0.000469
     6  N   -0.079546  -0.027807
     7  C   -0.412619  -0.009349
     8  C   -0.491239  -0.008779
     9  C   -0.432823  -0.001428
    10  C   -0.466494  -0.004172
    11  C    0.223003   0.017143
    12  C   -0.174138  -0.007626
    13  C   -0.045778   0.021873
    14  C    0.237632   0.002538
    15  C   -0.390992  -0.001185
    16  C   -0.198835  -0.000333
    17  C   -0.098320  -0.000064
    18  C    0.228027   0.000005
    19  O   -0.357707   0.000008
    20  O   -0.325795  -0.000002
    21  C    0.252243   0.001906
    22  C   -0.100312   0.027030
    23  C    0.044907  -0.003562
    24  C    0.254825   0.002502
    25  C   -0.377087  -0.001480
    26  C   -0.196638  -0.001136
    27  C   -0.316332  -0.001032
    28  C    0.257451   0.008863
    29  C   -0.098049  -0.011949
    30  C    0.082483   0.021675
    31  C    0.194469   0.000758
    32  C   -0.373772  -0.000197
    33  C   -0.300605  -0.043180
    34  C   -0.280770   0.053883
    35  C    0.238120  -0.001377
    36  C   -0.051169   0.029184
    37  C    0.007133  -0.004808
    38  C    0.281400   0.019443
    39  C   -0.383483  -0.001398
    40  C   -0.308793  -0.000771
    41  C   -0.220938   0.000091
    42  C    0.310290  -0.000014
    43  O   -0.331764   0.000018
    44  O   -0.332864   0.000003
    45  N    0.033323  -0.023491
    46  N   -0.022534  -0.024022
    47  N    0.048000  -0.035995
    48  N   -0.013798  -0.037965
    49  Fe  -0.184523   1.072375
    50  H    0.167850  -0.000264
    51  H    0.262153  -0.000111
    52  H    0.164405  -0.000197
    53  H    0.149712  -0.000026
    54  H    0.142826   0.000027
    55  H    0.152431  -0.000107
    56  H    0.358098  -0.000001
    57  H    0.079575   0.000002
    58  H    0.145619  -0.000012
    59  H    0.141751  -0.000179
    60  H    0.150076  -0.000052
    61  H    0.156874   0.000963
    62  H    0.136880   0.000660
    63  H    0.138676  -0.000012
    64  H    0.138224   0.000303
    65  H    0.118548  -0.000090
    66  H    0.146303  -0.000104
    67  H    0.116928  -0.000033
    68  H    0.116236   0.000021
    69  H    0.355382  -0.000001
    70  H    0.143928   0.001341
    71  H    0.156988   0.000845
    72  H    0.136155   0.000006
    73  H    0.135739  -0.000015
    74  H    0.165209  -0.000391
    75  H    0.149183  -0.000291
    76  H    0.135929   0.000090
    77  H    0.094522   0.000157
    78  H    0.150633   0.000967
    79  H    0.151215   0.000963
    80  H    0.130819  -0.000001
    81  H    0.128511   0.000194
    82  N   -0.012549  -0.052372
    83  C    0.033100   0.025658
    84  H    0.262060  -0.002948
    85  H    0.168477  -0.000245
    86  H    0.166563   0.000005
    87  H    0.166514   0.000061
    88  H    0.150576   0.002998
    89  H    0.162454  -0.002151
    90  H    0.156131  -0.002417
 Sum of Mulliken charges =   1.00000   1.00000

 Dipole moment (field-independent basis, Debye):
    X=              8.8309    Y=             -2.4281    Z=             -2.6743  Tot=              9.5411
 Quadrupole moment (field-independent basis, Debye-Ang):
   XX=           -268.7571   YY=           -220.1083   ZZ=           -225.0195
   XY=              6.0366   XZ=             32.6019   YZ=            -15.8430

 Summary of Natural Population Analysis:

                                       Natural Population
                Natural  -----------------------------------------------
    Atom  No    Charge         Core      Valence    Rydberg      Total
 -----------------------------------------------------------------------
      C    1   -0.32149      0.99969     2.31862    0.00318     3.32149
      C    2    0.06716      0.99963     1.92591    0.00729     2.93284
      N    3   -0.25029      0.99971     2.74132    0.00925     3.75029
      C    4   -0.04425      0.99954     2.03574    0.00898     3.04425
      C    5    0.10601      0.99969     1.88542    0.00888     2.89399
      N    6   -0.20044      0.99972     2.67839    0.02233     3.70044
      C    7   -0.11822      0.99949     2.11112    0.00761     3.11822
      C    8   -0.13109      0.99949     2.12365    0.00795     3.13109
      C    9   -0.12698      0.99947     2.11875    0.00876     3.12698
      C   10   -0.11960      0.99950     2.11229    0.00781     3.11960
      C   11    0.09941      0.99954     1.89142    0.00963     2.90059
      C   12   -0.00901      0.99940     2.00130    0.00830     3.00901
      C   13    0.00769      0.99946     1.98524    0.00761     2.99231
      C   14    0.08439      0.99954     1.90627    0.00980     2.91561
      C   15   -0.31990      0.99968     2.31662    0.00360     3.31990
      C   16   -0.21626      0.99961     2.20994    0.00671     3.21626
      C   17   -0.24812      0.99961     2.24041    0.00810     3.24812
      C   18    0.38313      0.99978     1.59883    0.01826     2.61687
      O   19   -0.29975      0.99989     3.28767    0.01219     4.29975
      O   20   -0.32732      0.99980     3.31371    0.01381     4.32732
      C   21    0.07869      0.99952     1.91176    0.01004     2.92131
      C   22    0.01781      0.99946     1.97441    0.00832     2.98219
      C   23   -0.06564      0.99942     2.05608    0.01014     3.06564
      C   24    0.10288      0.99953     1.88761    0.00997     2.89712
      C   25   -0.32010      0.99969     2.31636    0.00405     3.32010
      C   26   -0.07784      0.99960     2.06776    0.01047     3.07784
      C   27   -0.17613      0.99976     2.16894    0.00743     3.17613
      C   28    0.09002      0.99950     1.90064    0.00983     2.90998
      C   29    0.00771      0.99944     1.98451    0.00834     2.99229
      C   30   -0.05107      0.99943     2.04074    0.01090     3.05107
      C   31    0.09104      0.99955     1.89973    0.00968     2.90896
      C   32   -0.32280      0.99969     2.31947    0.00364     3.32280
      C   33   -0.12307      0.99960     2.11402    0.00945     3.12307
      C   34   -0.14669      0.99975     2.14205    0.00489     3.14669
      C   35    0.07600      0.99952     1.91456    0.00992     2.92400
      C   36    0.00757      0.99944     1.98504    0.00795     2.99243
      C   37   -0.01075      0.99942     2.00192    0.00941     3.01075
      C   38    0.09349      0.99950     1.89729    0.00972     2.90651
      C   39   -0.31947      0.99969     2.31604    0.00374     3.31947
      C   40   -0.20696      0.99966     2.20005    0.00725     3.20696
      C   41   -0.25685      0.99963     2.24875    0.00848     3.25685
      C   42    0.38386      0.99975     1.59887    0.01752     2.61614
      O   43   -0.27648      0.99989     3.26483    0.01175     4.27648
      O   44   -0.33394      0.99979     3.31899    0.01516     4.33394
      N   45   -0.20258      0.99968     2.67927    0.02363     3.70258
      N   46   -0.20896      0.99968     2.68868    0.02060     3.70896
      N   47   -0.20916      0.99967     2.68789    0.02160     3.70916
      N   48   -0.20641      0.99968     2.68400    0.02274     3.70641
     Fe   49    0.72076      8.99300     3.26093    0.02531    12.27924
      H   50    0.10788      0.00000     0.39119    0.00093     0.39212
      H   51    0.21848      0.00000     0.28064    0.00088     0.28152
      H   52    0.11929      0.00000     0.37992    0.00079     0.38071
      H   53    0.11950      0.00000     0.38003    0.00047     0.38050
      H   54    0.11267      0.00000     0.38664    0.00069     0.38733
      H   55    0.11499      0.00000     0.38431    0.00069     0.38501
      H   56    0.25961      0.00000     0.23907    0.00132     0.24039
      H   57    0.10747      0.00000     0.39175    0.00078     0.39253
      H   58    0.12523      0.00000     0.37427    0.00050     0.37477
      H   59    0.11502      0.00000     0.38400    0.00098     0.38498
      H   60    0.12189      0.00000     0.37725    0.00086     0.37811
      H   61    0.11615      0.00000     0.38316    0.00069     0.38385
      H   62    0.11279      0.00000     0.38649    0.00071     0.38721
      H   63    0.11155      0.00000     0.38762    0.00083     0.38845
      H   64    0.11572      0.00000     0.38277    0.00151     0.38428
      H   65    0.11064      0.00000     0.38868    0.00068     0.38936
      H   66    0.12244      0.00000     0.37673    0.00083     0.37756
      H   67    0.10625      0.00000     0.39294    0.00081     0.39375
      H   68    0.11563      0.00000     0.38364    0.00073     0.38437
      H   69    0.25740      0.00000     0.24148    0.00111     0.24260
      H   70    0.11291      0.00000     0.38623    0.00086     0.38709
      H   71    0.11796      0.00000     0.38133    0.00071     0.38204
      H   72    0.11127      0.00000     0.38815    0.00057     0.38873
      H   73    0.11664      0.00000     0.38213    0.00122     0.38336
      H   74    0.12268      0.00000     0.37658    0.00074     0.37732
      H   75    0.11480      0.00000     0.38450    0.00070     0.38520
      H   76    0.10982      0.00000     0.38944    0.00074     0.39018
      H   77    0.11642      0.00000     0.38207    0.00151     0.38358
      H   78    0.11594      0.00000     0.38333    0.00074     0.38406
      H   79    0.11752      0.00000     0.38167    0.00081     0.38248
      H   80    0.11023      0.00000     0.38920    0.00057     0.38977
      H   81    0.11373      0.00000     0.38490    0.00137     0.38627
      N   82   -0.14622      0.99975     2.62519    0.02128     3.64622
      C   83    0.15213      0.99966     1.84198    0.00622     2.84787
      H   84    0.13237      0.00000     0.36687    0.00076     0.36763
      H   85    0.11233      0.00000     0.38662    0.00105     0.38767
      H   86    0.09582      0.00000     0.40337    0.00081     0.40418
      H   87    0.10151      0.00000     0.39754    0.00094     0.39849
      H   88    0.11197      0.00000     0.38719    0.00084     0.38803
      H   89    0.10075      0.00000     0.39856    0.00068     0.39925
      H   90    0.09874      0.00000     0.40052    0.00074     0.40126
 =======================================================================
   * Total *    1.00000     58.97361   129.44373    0.58266   189.00000

 Normal termination of Gaussian 16 at Sun Aug 28 23:56:52 2022.
