 Gaussian 16, Revision A.03,
 Gaussian 16:  ES64L-G16RevA.03 25-Dec-2016

 ----------------------------------------------------------------------
 # PBE1PBE/def2TZVP empiricaldispersion=GD3BJ int=(grid=ultrafine) geom
 =check pop=nbo
 ----------------------------------------------------------------------

 ----------
 1v9z_III_H
 ----------
 Structure from the checkpoint file:  "1v9z_III_H.chk"
 Charge =  1 Multiplicity = 6

                         Standard orientation:
 ---------------------------------------------------------------------
 Center     Atomic      Atomic             Coordinates (Angstroms)
 Number     Number       Type             X           Y           Z
 ---------------------------------------------------------------------
      1          6           0       -1.129545   -1.711640    5.712280
      2          6           0       -1.249196   -0.967192    4.425822
      3          7           0       -1.627878    0.358608    4.357877
      4          6           0       -0.974828   -1.339719    3.152353
      5          6           0       -1.576969    0.766636    3.106828
      6          7           0       -1.183182   -0.243499    2.353137
      7          6           0        1.280649   -0.612713   -4.339049
      8          6           0        1.254445   -0.347908   -2.852556
      9         16           0       -0.387448    0.141992   -2.309470
     10          6           0       -0.722113    1.540213   -3.414496
     11          6           0        2.527621    0.073469    0.861262
     12          6           0       -0.844123   -3.357630   -0.005085
     13          6           0       -4.178398    0.087597   -0.681936
     14          6           0       -0.874929    3.516906    0.197113
     15          6           0        1.879312   -1.193094    0.669953
     16          6           0        2.570433   -2.487983    0.758376
     17          6           0        1.607039   -3.456254    0.512790
     18          6           0        0.366018   -2.750389    0.281707
     19          6           0        1.827477   -4.988715    0.493486
     20          6           0        4.057861   -2.695091    1.105703
     21          6           0        4.825009   -3.425800    0.003342
     22          6           0        4.878543   -2.671969   -1.312011
     23          8           0        4.603519   -3.301328   -2.340350
     24          8           0        5.187343   -1.460928   -1.304495
     25          6           0       -2.038065   -2.720294   -0.250215
     26          6           0       -3.253043   -3.408878   -0.564864
     27          6           0       -4.252504   -2.466457   -0.768315
     28          6           0       -3.563974   -1.161605   -0.567349
     29          6           0       -3.362545   -4.955085   -0.650875
     30          6           0       -5.616689   -2.754928   -1.097199
     31          6           0       -5.989496   -4.055575   -1.462239
     32          6           0       -3.553367    1.320255   -0.504247
     33          6           0       -4.276152    2.586660   -0.666906
     34          6           0       -3.331378    3.587001   -0.412725
     35          6           0       -2.075300    2.884332   -0.111742
     36          6           0       -5.774692    2.708601   -1.042109
     37          6           0       -3.463641    5.020453   -0.422166
     38          6           0       -4.661180    5.610845   -0.847910
     39          6           0        0.334390    2.889506    0.470007
     40          6           0        1.567205    3.591243    0.772015
     41          6           0        2.518104    2.625842    0.954145
     42          6           0        1.860956    1.333775    0.763459
     43          6           0        1.782447    5.115316    0.869263
     44          6           0        3.987498    2.844492    1.279895
     45          6           0        4.652012    3.156957   -0.051716
     46          6           0        5.877113    2.322823   -0.332367
     47          8           0        6.947348    2.928444   -0.583958
     48          8           0        5.756685    1.070852   -0.306274
     49          7           0        0.539689   -1.375382    0.380049
     50          7           0       -2.219998   -1.319967   -0.240174
     51          7           0       -2.218378    1.485610   -0.169123
     52          7           0        0.522663    1.506179    0.470541
     53         26           0       -0.798746    0.067424    0.169230
     54          1           0        0.360095   -0.286030   -4.775808
     55          1           0        2.095025   -0.078557   -4.782185
     56          1           0        1.405393   -1.661181   -4.512411
     57          1           0        1.544887   -1.236992   -2.332869
     58          1           0        1.947476    0.434496   -2.623532
     59          1           0       -1.777726    1.632922   -3.562768
     60          1           0       -0.343131    2.439794   -2.976287
     61          1           0       -0.242959    1.372985   -4.356487
     62          1           0        7.079508    3.332059   -1.444904
     63          1           0        4.636505   -0.822257   -1.763054
     64          1           0        3.941072    2.992175   -0.834220
     65          1           0        4.933893    4.189142   -0.057902
     66          1           0        4.408840    1.957788    1.705486
     67          1           0        4.099420    3.669004    1.952616
     68          1           0        5.826553   -3.594500    0.340017
     69          1           0        4.357548   -4.373258   -0.166078
     70          1           0        4.125119   -3.265046    2.008769
     71          1           0        4.511056   -1.739133    1.265884
     72          1           0        1.389986   -5.400861   -0.391747
     73          1           0        2.876704   -5.198282    0.503629
     74          1           0        1.368074   -5.426019    1.355237
     75          1           0       -0.851626   -4.427051   -0.039462
     76          1           0        3.572697    0.073865    1.090859
     77          1           0        0.833905    5.610446    0.865425
     78          1           0        2.301061    5.345107    1.776531
     79          1           0        2.361706    5.447774    0.033302
     80          1           0       -0.884080    4.586442    0.227263
     81          1           0       -5.219762    0.098961   -0.927561
     82          1           0       -3.869301   -5.227116   -1.553149
     83          1           0       -2.381713   -5.382714   -0.649856
     84          1           0       -3.912094   -5.321112    0.191099
     85          1           0       -6.118106    1.779035   -1.445686
     86          1           0       -6.342778    2.949503   -0.167956
     87          1           0       -5.897932    3.481464   -1.771762
     88          1           0       -1.814565    1.750491    2.759729
     89          1           0       -1.898994    0.922155    5.138205
     90          1           0       -0.655121   -2.308513    2.829669
     91          1           0       -1.638369   -2.649346    5.630386
     92          1           0       -0.096189   -1.884363    5.929632
     93          1           0       -1.568219   -1.135408    6.499948
     94          1           0       -2.647600    5.635126   -0.104119
     95          1           0       -5.504252    4.997365   -1.088267
     96          1           0       -4.732456    6.675103   -0.932619
     97          1           0       -6.350935   -1.977310   -1.064123
     98          1           0       -6.655543   -4.210113   -2.285282
     99          1           0       -5.608097   -4.894111   -0.917912
 ---------------------------------------------------------------------

 SCF Done:  E(UPBE1PBE) =  -3879.20842371     A.U. after   40 cycles

 Alpha virt. eigenvalues --    0.91726   0.91806   0.92218   0.92437   0.92849
 Alpha virt. eigenvalues --    0.93074   0.93302   0.93614   0.93999   0.94111
 Alpha virt. eigenvalues --    0.94579   0.94673   0.94818   0.95229   0.95788

  Beta  occ. eigenvalues -- -256.55221 -89.11860 -30.28281 -26.11614 -26.11423
  Beta  occ. eigenvalues --  -26.11402 -19.33557 -19.31435 -19.26937 -19.23718
  Beta  occ. eigenvalues --  -14.54315 -14.48664 -14.48075 -14.47887 -14.47834
  Beta  occ. eigenvalues --  -14.47562 -10.44018 -10.41001 -10.37904 -10.36109
  Beta  occ. eigenvalues --  -10.36003 -10.35993 -10.35937 -10.35705 -10.35693
  Beta  occ. eigenvalues --  -10.35558 -10.35375 -10.35065 -10.33607 -10.33286
  Beta  occ. eigenvalues --  -10.33161 -10.33071 -10.33032 -10.32850 -10.32847
  Beta  occ. eigenvalues --  -10.32776 -10.32776 -10.32711 -10.32617 -10.32522
  Beta  occ. eigenvalues --  -10.32500 -10.32486 -10.32211 -10.31817 -10.31761
  Beta  occ. eigenvalues --  -10.31707 -10.31344 -10.31150 -10.30950 -10.30939
  Beta  occ. eigenvalues --  -10.30882 -10.30790 -10.30688 -10.30047 -10.30017
  Beta  occ. eigenvalues --  -10.29713 -10.28775  -8.09796  -6.03465  -6.03142
  Beta  occ. eigenvalues --   -6.02571  -3.57261  -2.31911  -2.31442  -2.31379
  Beta  occ. eigenvalues --   -1.24448  -1.22547  -1.16362  -1.11205  -1.08980
  Beta  occ. eigenvalues --   -1.07698  -1.06744  -1.06441  -1.05328  -1.00579
  Beta  occ. eigenvalues --   -0.93758  -0.93584  -0.93199  -0.92450  -0.92086
  Beta  occ. eigenvalues --   -0.91891  -0.90818  -0.90762  -0.90282  -0.88236
  Beta  occ. eigenvalues --   -0.87135  -0.86048  -0.85501  -0.85077  -0.84947
  Beta  occ. eigenvalues --   -0.82855  -0.81815  -0.81573  -0.81287  -0.80974
  Beta  occ. eigenvalues --   -0.79123  -0.78442  -0.77533  -0.77065  -0.75669
  Beta  occ. eigenvalues --   -0.75127  -0.74399  -0.74224  -0.72379  -0.71950
  Beta  occ. eigenvalues --   -0.71147  -0.70702  -0.69325  -0.68865  -0.67644
  Beta  occ. eigenvalues --   -0.66307  -0.65391  -0.64820  -0.64177  -0.63807
  Beta  occ. eigenvalues --   -0.62577  -0.61917  -0.61466  -0.60958  -0.59767
  Beta  occ. eigenvalues --   -0.59643  -0.58878  -0.58290  -0.58070  -0.57814
  Beta  occ. eigenvalues --   -0.57522  -0.57335  -0.57317  -0.56979  -0.56805
  Beta  occ. eigenvalues --   -0.55854  -0.54917  -0.54813  -0.54232  -0.54219
  Beta  occ. eigenvalues --   -0.54043  -0.53793  -0.53494  -0.53361  -0.53271
  Beta  occ. eigenvalues --   -0.52993  -0.52805  -0.52716  -0.52643  -0.52317
  Beta  occ. eigenvalues --   -0.52027  -0.51951  -0.51788  -0.51507  -0.51356
  Beta  occ. eigenvalues --   -0.51314  -0.50852  -0.50607  -0.50479  -0.50270
  Beta  occ. eigenvalues --   -0.50134  -0.49812  -0.49588  -0.49553  -0.49164
  Beta  occ. eigenvalues --   -0.49068  -0.48732  -0.48554  -0.48226  -0.47774
  Beta  occ. eigenvalues --   -0.47387  -0.47095  -0.46960  -0.46735  -0.46569
  Beta  occ. eigenvalues --   -0.46075  -0.45422  -0.45129  -0.45014  -0.44760
  Beta  occ. eigenvalues --   -0.44254  -0.43728  -0.43202  -0.43066  -0.42795
  Beta  occ. eigenvalues --   -0.42529  -0.42393  -0.42130  -0.41712  -0.41435
  Beta  occ. eigenvalues --   -0.40641  -0.40548  -0.39102  -0.38932  -0.37490
  Beta  occ. eigenvalues --   -0.37254  -0.36609  -0.35393  -0.34426  -0.34067
  Beta  occ. eigenvalues --   -0.33431  -0.33038  -0.31871  -0.30460  -0.29194
  Beta  occ. eigenvalues --   -0.28243
  Beta virt. eigenvalues --   -0.20481  -0.20255  -0.18400  -0.16464  -0.16199
  Beta virt. eigenvalues --   -0.14973  -0.13224  -0.10957  -0.10603  -0.10359
  Beta virt. eigenvalues --   -0.08253  -0.07148  -0.07088  -0.05913  -0.05447

 Mulliken charges and spin densities:
               1          2
     1  C   -0.347352   0.001029
     2  C    0.119973   0.006132
     3  N   -0.204486   0.001780
     4  C   -0.150792  -0.001370
     5  C    0.035075   0.002287
     6  N   -0.130145   0.057793
     7  C   -0.342906   0.003574
     8  C   -0.195245  -0.000154
     9  S   -0.011090   0.087377
    10  C   -0.382627   0.006159
    11  C   -0.596683  -0.026117
    12  C   -0.509644  -0.040289
    13  C   -0.476510  -0.022788
    14  C   -0.567292  -0.004806
    15  C    0.280228   0.020515
    16  C   -0.043194   0.029397
    17  C   -0.055268   0.019122
    18  C    0.180975   0.033787
    19  C   -0.364866  -0.000056
    20  C   -0.210263  -0.001151
    21  C   -0.155412   0.001010
    22  C    0.237743   0.000196
    23  O   -0.352119   0.000030
    24  O   -0.303473  -0.000016
    25  C    0.378747   0.039298
    26  C   -0.046849  -0.022994
    27  C    0.006587   0.057956
    28  C    0.224558   0.012669
    29  C   -0.440227   0.003206
    30  C   -0.170627  -0.102431
    31  C   -0.290556   0.154506
    32  C    0.340320   0.018487
    33  C   -0.117871   0.007756
    34  C    0.064991   0.028631
    35  C    0.248818   0.001413
    36  C   -0.379718   0.000559
    37  C   -0.175399  -0.013848
    38  C   -0.242498   0.025771
    39  C    0.375064  -0.000080
    40  C   -0.114853   0.029310
    41  C   -0.065254   0.007275
    42  C    0.276352   0.024083
    43  C   -0.396206  -0.000238
    44  C   -0.196085   0.000463
    45  C   -0.228944   0.000468
    46  C    0.321803   0.000089
    47  O   -0.339359   0.000066
    48  O   -0.354935  -0.000011
    49  N   -0.024682   0.048015
    50  N   -0.020440   0.032915
    51  N   -0.098947   0.050738
    52  N   -0.006130   0.049905
    53  Fe  -0.030727   4.365258
    54  H    0.124922  -0.000035
    55  H    0.128852   0.001013
    56  H    0.150174   0.000308
    57  H    0.163973  -0.000192
    58  H    0.116113   0.000850
    59  H    0.166022  -0.000006
    60  H    0.152996   0.000989
    61  H    0.166062   0.004764
    62  H    0.363382  -0.000002
    63  H    0.344103   0.000028
    64  H    0.138068   0.000033
    65  H    0.114551  -0.000011
    66  H    0.140439   0.000035
    67  H    0.139744   0.000290
    68  H    0.135802   0.000233
    69  H    0.107323  -0.000086
    70  H    0.139739   0.001110
    71  H    0.131376   0.000039
    72  H    0.150150   0.000421
    73  H    0.129102   0.000380
    74  H    0.149298   0.000766
    75  H    0.115984   0.001438
    76  H    0.146598   0.000792
    77  H    0.134489   0.000048
    78  H    0.148615   0.000764
    79  H    0.150349   0.001028
    80  H    0.094446  -0.000003
    81  H    0.095218   0.000590
    82  H    0.173804  -0.000688
    83  H    0.129969   0.000048
    84  H    0.165249  -0.000999
    85  H    0.136466  -0.000025
    86  H    0.172933   0.000153
    87  H    0.138098   0.000422
    88  H    0.181942   0.000743
    89  H    0.243815   0.001197
    90  H    0.155386   0.000935
    91  H    0.156201   0.000066
    92  H    0.156038   0.000113
    93  H    0.129403   0.000176
    94  H    0.119844   0.000592
    95  H    0.127814  -0.001091
    96  H    0.146457  -0.001092
    97  H    0.138836   0.007248
    98  H    0.154768  -0.008161
    99  H    0.183529  -0.007899
 Sum of Mulliken charges =   1.00000   5.00000

 Dipole moment (field-independent basis, Debye):
    X=             -3.9456    Y=              5.5557    Z=              4.4157  Tot=              8.1198
 Quadrupole moment (field-independent basis, Debye-Ang):
   XX=           -256.2000   YY=           -244.3052   ZZ=           -267.5834
   XY=             28.1273   XZ=              0.2561   YZ=            -19.2085

 Summary of Natural Population Analysis:

                                       Natural Population
                Natural  -----------------------------------------------
    Atom  No    Charge         Core      Valence    Rydberg      Total
 -----------------------------------------------------------------------
      C    1   -0.32090      0.99969     2.31800    0.00321     3.32090
      C    2    0.06287      0.99954     1.92884    0.00874     2.93713
      N    3   -0.23223      0.99968     2.72274    0.00981     3.73223
      C    4   -0.03648      0.99943     2.02813    0.00892     3.03648
      C    5    0.09774      0.99964     1.89181    0.01081     2.90226
      N    6   -0.15795      0.99972     2.63616    0.02208     3.65795
      C    7   -0.30787      0.99973     2.30191    0.00623     3.30787
      C    8   -0.26567      0.99966     2.25706    0.00895     3.26567
      S    9    0.29518      4.99938     2.68407    0.02138     7.70482
      C   10   -0.36275      0.99963     2.35533    0.00779     3.36275
      C   11   -0.12122      0.99953     2.11443    0.00726     3.12122
      C   12   -0.12331      0.99947     2.11608    0.00777     3.12331
      C   13   -0.11959      0.99949     2.11262    0.00749     3.11959
      C   14   -0.11904      0.99948     2.11207    0.00749     3.11904
      C   15    0.09300      0.99953     1.89776    0.00971     2.90700
      C   16    0.00630      0.99947     1.98471    0.00952     2.99370
      C   17    0.01443      0.99929     1.97583    0.01045     2.98557
      C   18    0.08734      0.99949     1.90283    0.01033     2.91266
      C   19   -0.31872      0.99969     2.31547    0.00356     3.31872
      C   20   -0.21589      0.99966     2.20940    0.00683     3.21589
      C   21   -0.24743      0.99962     2.23939    0.00842     3.24743
      C   22    0.38483      0.99976     1.59699    0.01842     2.61517
      O   23   -0.29511      0.99989     3.28283    0.01239     4.29511
      O   24   -0.32860      0.99980     3.31389    0.01491     4.32860
      C   25    0.09363      0.99946     1.89694    0.00997     2.90637
      C   26    0.00056      0.99946     1.99155    0.00843     2.99944
      C   27   -0.00827      0.99930     1.99664    0.01233     3.00827
      C   28    0.10356      0.99954     1.88642    0.01048     2.89644
      C   29   -0.31743      0.99969     2.31407    0.00368     3.31743
      C   30   -0.15081      0.99963     2.14210    0.00908     3.15081
      C   31   -0.09722      0.99971     2.09150    0.00602     3.09722
      C   32    0.09041      0.99951     1.90020    0.00988     2.90959
      C   33    0.01304      0.99949     1.97960    0.00786     2.98696
      C   34   -0.02275      0.99933     2.01124    0.01219     3.02275
      C   35    0.08545      0.99953     1.90455    0.01047     2.91455
      C   36   -0.31828      0.99968     2.31484    0.00376     3.31828
      C   37   -0.11865      0.99963     2.11085    0.00817     3.11865
      C   38   -0.15259      0.99970     2.14752    0.00536     3.15259
      C   39    0.07994      0.99949     1.91050    0.01007     2.92006
      C   40    0.00381      0.99941     1.98875    0.00803     2.99619
      C   41    0.00054      0.99944     1.99106    0.00895     2.99946
      C   42    0.09227      0.99953     1.89836    0.00984     2.90773
      C   43   -0.31769      0.99969     2.31439    0.00360     3.31769
      C   44   -0.21260      0.99966     2.20574    0.00720     3.21260
      C   45   -0.25925      0.99962     2.25104    0.00858     3.25925
      C   46    0.39343      0.99974     1.58951    0.01732     2.60657
      O   47   -0.33765      0.99979     3.32293    0.01494     4.33765
      O   48   -0.29223      0.99989     3.28065    0.01168     4.29223
      N   49   -0.20046      0.99969     2.68090    0.01987     3.70046
      N   50   -0.19120      0.99972     2.67160    0.01988     3.69120
      N   51   -0.19656      0.99972     2.67669    0.02015     3.69656
      N   52   -0.19512      0.99969     2.67530    0.02012     3.69512
     Fe   53    2.36235      8.99507     1.60250    0.04009    10.63765
      H   54    0.10515      0.00000     0.39419    0.00066     0.39485
      H   55    0.10981      0.00000     0.38968    0.00052     0.39019
      H   56    0.11640      0.00000     0.38311    0.00048     0.38360
      H   57    0.12367      0.00000     0.37541    0.00092     0.37633
      H   58    0.10388      0.00000     0.39474    0.00138     0.39612
      H   59    0.12223      0.00000     0.37739    0.00038     0.37777
      H   60    0.11238      0.00000     0.38680    0.00082     0.38762
      H   61    0.11889      0.00000     0.38047    0.00064     0.38111
      H   62    0.26128      0.00000     0.23764    0.00108     0.23872
      H   63    0.25934      0.00000     0.23882    0.00184     0.24066
      H   64    0.12062      0.00000     0.37879    0.00059     0.37938
      H   65    0.10950      0.00000     0.38975    0.00075     0.39050
      H   66    0.11925      0.00000     0.38001    0.00074     0.38075
      H   67    0.11514      0.00000     0.38418    0.00069     0.38486
      H   68    0.12092      0.00000     0.37847    0.00060     0.37908
      H   69    0.11393      0.00000     0.38532    0.00075     0.38607
      H   70    0.11651      0.00000     0.38277    0.00071     0.38349
      H   71    0.11529      0.00000     0.38400    0.00071     0.38471
      H   72    0.11622      0.00000     0.38311    0.00067     0.38378
      H   73    0.11269      0.00000     0.38654    0.00077     0.38731
      H   74    0.11417      0.00000     0.38512    0.00071     0.38583
      H   75    0.11409      0.00000     0.38440    0.00151     0.38591
      H   76    0.12242      0.00000     0.37636    0.00122     0.37758
      H   77    0.11077      0.00000     0.38868    0.00056     0.38923
      H   78    0.11506      0.00000     0.38419    0.00075     0.38494
      H   79    0.11416      0.00000     0.38510    0.00074     0.38584
      H   80    0.11167      0.00000     0.38710    0.00123     0.38833
      H   81    0.11131      0.00000     0.38705    0.00163     0.38869
      H   82    0.11952      0.00000     0.37961    0.00087     0.38048
      H   83    0.10805      0.00000     0.39132    0.00063     0.39195
      H   84    0.11280      0.00000     0.38642    0.00078     0.38720
      H   85    0.11169      0.00000     0.38771    0.00060     0.38831
      H   86    0.11830      0.00000     0.38092    0.00078     0.38170
      H   87    0.11291      0.00000     0.38623    0.00086     0.38709
      H   88    0.11420      0.00000     0.38504    0.00076     0.38580
      H   89    0.21175      0.00000     0.28749    0.00076     0.28825
      H   90    0.11701      0.00000     0.38227    0.00071     0.38299
      H   91    0.11978      0.00000     0.37967    0.00055     0.38022
      H   92    0.11838      0.00000     0.38101    0.00060     0.38162
      H   93    0.11156      0.00000     0.38786    0.00057     0.38844
      H   94    0.10629      0.00000     0.39298    0.00073     0.39371
      H   95    0.09533      0.00000     0.40379    0.00088     0.40467
      H   96    0.10389      0.00000     0.39551    0.00060     0.39611
      H   97    0.11211      0.00000     0.38717    0.00072     0.38789
      H   98    0.10193      0.00000     0.39731    0.00076     0.39807
      H   99    0.09862      0.00000     0.40045    0.00092     0.40138
 =======================================================================
   * Total *    3.00006     64.97407   135.40824    0.61763   200.99994

 Normal termination of Gaussian 16 at Fri Sep  2 01:10:04 2022.
