 Gaussian 16, Revision A.03,
 Gaussian 16:  ES64L-G16RevA.03 25-Dec-2016

 ----------------------------------------------------------------------
 # PBE1PBE/def2TZVP empiricaldispersion=GD3BJ int=(grid=ultrafine) geom
 =check pop=nbo
 ----------------------------------------------------------------------

 ---------
 1v9z_II_Q
 ---------
 Structure from the checkpoint file:  "1v9z_II_Q.chk"
 Charge =  0 Multiplicity = 5

                         Standard orientation:
 ---------------------------------------------------------------------
 Center     Atomic      Atomic             Coordinates (Angstroms)
 Number     Number       Type             X           Y           Z
 ---------------------------------------------------------------------
      1          6           0       -1.129545   -1.711640    5.712280
      2          6           0       -1.249196   -0.967192    4.425822
      3          7           0       -1.627878    0.358608    4.357877
      4          6           0       -0.974828   -1.339719    3.152353
      5          6           0       -1.576969    0.766636    3.106828
      6          7           0       -1.183182   -0.243499    2.353137
      7          6           0        1.280649   -0.612713   -4.339049
      8          6           0        1.254445   -0.347908   -2.852556
      9         16           0       -0.387448    0.141992   -2.309470
     10          6           0       -0.722113    1.540213   -3.414496
     11          6           0        2.527621    0.073469    0.861262
     12          6           0       -0.844123   -3.357630   -0.005085
     13          6           0       -4.178398    0.087597   -0.681936
     14          6           0       -0.874929    3.516906    0.197113
     15          6           0        1.879312   -1.193094    0.669953
     16          6           0        2.570433   -2.487983    0.758376
     17          6           0        1.607039   -3.456254    0.512790
     18          6           0        0.366018   -2.750389    0.281707
     19          6           0        1.827477   -4.988715    0.493486
     20          6           0        4.057861   -2.695091    1.105703
     21          6           0        4.825009   -3.425800    0.003342
     22          6           0        4.878543   -2.671969   -1.312011
     23          8           0        4.603519   -3.301328   -2.340350
     24          8           0        5.187343   -1.460928   -1.304495
     25          6           0       -2.038065   -2.720294   -0.250215
     26          6           0       -3.253043   -3.408878   -0.564864
     27          6           0       -4.252504   -2.466457   -0.768315
     28          6           0       -3.563974   -1.161605   -0.567349
     29          6           0       -3.362545   -4.955085   -0.650875
     30          6           0       -5.616689   -2.754928   -1.097199
     31          6           0       -5.989496   -4.055575   -1.462239
     32          6           0       -3.553367    1.320255   -0.504247
     33          6           0       -4.276152    2.586660   -0.666906
     34          6           0       -3.331378    3.587001   -0.412725
     35          6           0       -2.075300    2.884332   -0.111742
     36          6           0       -5.774692    2.708601   -1.042109
     37          6           0       -3.463641    5.020453   -0.422166
     38          6           0       -4.661180    5.610845   -0.847910
     39          6           0        0.334390    2.889506    0.470007
     40          6           0        1.567205    3.591243    0.772015
     41          6           0        2.518104    2.625842    0.954145
     42          6           0        1.860956    1.333775    0.763459
     43          6           0        1.782447    5.115316    0.869263
     44          6           0        3.987498    2.844492    1.279895
     45          6           0        4.652012    3.156957   -0.051716
     46          6           0        5.877113    2.322823   -0.332367
     47          8           0        6.947348    2.928444   -0.583958
     48          8           0        5.756685    1.070852   -0.306274
     49          7           0        0.539689   -1.375382    0.380049
     50          7           0       -2.219998   -1.319967   -0.240174
     51          7           0       -2.218378    1.485610   -0.169123
     52          7           0        0.522663    1.506179    0.470541
     53         26           0       -0.798746    0.067424    0.169230
     54          1           0        0.360095   -0.286030   -4.775808
     55          1           0        2.095025   -0.078557   -4.782185
     56          1           0        1.405393   -1.661181   -4.512411
     57          1           0        1.544887   -1.236992   -2.332869
     58          1           0        1.947476    0.434496   -2.623532
     59          1           0       -1.777726    1.632922   -3.562768
     60          1           0       -0.343131    2.439794   -2.976287
     61          1           0       -0.242959    1.372985   -4.356487
     62          1           0        7.079508    3.332059   -1.444904
     63          1           0        4.636505   -0.822257   -1.763054
     64          1           0        3.941072    2.992175   -0.834220
     65          1           0        4.933893    4.189142   -0.057902
     66          1           0        4.408840    1.957788    1.705486
     67          1           0        4.099420    3.669004    1.952616
     68          1           0        5.826553   -3.594500    0.340017
     69          1           0        4.357548   -4.373258   -0.166078
     70          1           0        4.125119   -3.265046    2.008769
     71          1           0        4.511056   -1.739133    1.265884
     72          1           0        1.389986   -5.400861   -0.391747
     73          1           0        2.876704   -5.198282    0.503629
     74          1           0        1.368074   -5.426019    1.355237
     75          1           0       -0.851626   -4.427051   -0.039462
     76          1           0        3.572697    0.073865    1.090859
     77          1           0        0.833905    5.610446    0.865425
     78          1           0        2.301061    5.345107    1.776531
     79          1           0        2.361706    5.447774    0.033302
     80          1           0       -0.884080    4.586442    0.227263
     81          1           0       -5.219762    0.098961   -0.927561
     82          1           0       -3.869301   -5.227116   -1.553149
     83          1           0       -2.381713   -5.382714   -0.649856
     84          1           0       -3.912094   -5.321112    0.191099
     85          1           0       -6.118106    1.779035   -1.445686
     86          1           0       -6.342778    2.949503   -0.167956
     87          1           0       -5.897932    3.481464   -1.771762
     88          1           0       -1.814565    1.750491    2.759729
     89          1           0       -1.898994    0.922155    5.138205
     90          1           0       -0.655121   -2.308513    2.829669
     91          1           0       -1.638369   -2.649346    5.630386
     92          1           0       -0.096189   -1.884363    5.929632
     93          1           0       -1.568219   -1.135408    6.499948
     94          1           0       -2.647600    5.635126   -0.104119
     95          1           0       -5.504252    4.997365   -1.088267
     96          1           0       -4.732456    6.675103   -0.932619
     97          1           0       -6.350935   -1.977310   -1.064123
     98          1           0       -6.655543   -4.210113   -2.285282
     99          1           0       -5.608097   -4.894111   -0.917912
 ---------------------------------------------------------------------

 SCF Done:  E(UPBE1PBE) =  -3879.35946118     A.U. after  127 cycles

 Alpha virt. eigenvalues --    1.00971   1.01131   1.01597   1.01661   1.02308
 Alpha virt. eigenvalues --    1.02651   1.02824   1.03121   1.03425   1.03493
 Alpha virt. eigenvalues --    1.03694   1.03997   1.04090   1.04699   1.04921

  Beta  occ. eigenvalues -- -256.41534 -89.01804 -30.15930 -25.99249 -25.99177
  Beta  occ. eigenvalues --  -25.98324 -19.26507 -19.23603 -19.19309 -19.16036
  Beta  occ. eigenvalues --  -14.45423 -14.38865 -14.38269 -14.38041 -14.37943
  Beta  occ. eigenvalues --  -14.37339 -10.36342 -10.33259 -10.28554 -10.26657
  Beta  occ. eigenvalues --  -10.25278 -10.25159 -10.25024 -10.24782 -10.24389
  Beta  occ. eigenvalues --  -10.24206 -10.24031 -10.23949 -10.23838 -10.23663
  Beta  occ. eigenvalues --  -10.23477 -10.23300 -10.23270 -10.23110 -10.22894
  Beta  occ. eigenvalues --  -10.22658 -10.22609 -10.22510 -10.22264 -10.22105
  Beta  occ. eigenvalues --  -10.22084 -10.22048 -10.21896 -10.21755 -10.21704
  Beta  occ. eigenvalues --  -10.21688 -10.21636 -10.21427 -10.21215 -10.21188
  Beta  occ. eigenvalues --  -10.21142 -10.21122 -10.20360 -10.20343 -10.20235
  Beta  occ. eigenvalues --  -10.19513 -10.18897  -7.99738  -5.93421  -5.93090
  Beta  occ. eigenvalues --   -5.92495  -3.46291  -2.22221  -2.22116  -2.18572
  Beta  occ. eigenvalues --   -1.17307  -1.14733  -1.07243  -1.03620  -1.01296
  Beta  occ. eigenvalues --   -0.96899  -0.95989  -0.95579  -0.94401  -0.91305
  Beta  occ. eigenvalues --   -0.84338  -0.84215  -0.82661  -0.82413  -0.82204
  Beta  occ. eigenvalues --   -0.81818  -0.81458  -0.80138  -0.79639  -0.78498
  Beta  occ. eigenvalues --   -0.77498  -0.76379  -0.75930  -0.74686  -0.73756
  Beta  occ. eigenvalues --   -0.73332  -0.73144  -0.72146  -0.71511  -0.70610
  Beta  occ. eigenvalues --   -0.70285  -0.68842  -0.68462  -0.68272  -0.66623
  Beta  occ. eigenvalues --   -0.65211  -0.64815  -0.64113  -0.63656  -0.62913
  Beta  occ. eigenvalues --   -0.61260  -0.60152  -0.59936  -0.58004  -0.57308
  Beta  occ. eigenvalues --   -0.56757  -0.55264  -0.54705  -0.54150  -0.53890
  Beta  occ. eigenvalues --   -0.53060  -0.51840  -0.51694  -0.51468  -0.50736
  Beta  occ. eigenvalues --   -0.50245  -0.49951  -0.49430  -0.48959  -0.48694
  Beta  occ. eigenvalues --   -0.48539  -0.48324  -0.47915  -0.47811  -0.47670
  Beta  occ. eigenvalues --   -0.46636  -0.46428  -0.45211  -0.45070  -0.44514
  Beta  occ. eigenvalues --   -0.44218  -0.44145  -0.44078  -0.43946  -0.43861
  Beta  occ. eigenvalues --   -0.43758  -0.43555  -0.43320  -0.43077  -0.42874
  Beta  occ. eigenvalues --   -0.42804  -0.42702  -0.42340  -0.42220  -0.41945
  Beta  occ. eigenvalues --   -0.41798  -0.41283  -0.41164  -0.41033  -0.40968
  Beta  occ. eigenvalues --   -0.40635  -0.40445  -0.40160  -0.39648  -0.39267
  Beta  occ. eigenvalues --   -0.39146  -0.38723  -0.38409  -0.38076  -0.38008
  Beta  occ. eigenvalues --   -0.37752  -0.37478  -0.37186  -0.36847  -0.36710
  Beta  occ. eigenvalues --   -0.36104  -0.35985  -0.35794  -0.35374  -0.35233
  Beta  occ. eigenvalues --   -0.34714  -0.34433  -0.33832  -0.33538  -0.33425
  Beta  occ. eigenvalues --   -0.33106  -0.32543  -0.32251  -0.31788  -0.31422
  Beta  occ. eigenvalues --   -0.31250  -0.30926  -0.30455  -0.28905  -0.28220
  Beta  occ. eigenvalues --   -0.26810  -0.26191  -0.25976  -0.25794  -0.25321
  Beta  occ. eigenvalues --   -0.24867  -0.23853  -0.22999  -0.21696  -0.19768
  Beta  occ. eigenvalues --   -0.17942  -0.17225
  Beta virt. eigenvalues --   -0.09047  -0.08042  -0.04907  -0.04507  -0.03273
  Beta virt. eigenvalues --   -0.02936  -0.02413  -0.00687   0.00752   0.01013
  Beta virt. eigenvalues --    0.01763   0.02074   0.02236   0.02457   0.03099

 Mulliken charges and spin densities:
               1          2
     1  C   -0.356951   0.001034
     2  C    0.130827   0.004021
     3  N   -0.213530   0.001439
     4  C   -0.149140  -0.000848
     5  C    0.034575   0.002526
     6  N   -0.131950   0.047374
     7  C   -0.337503   0.002617
     8  C   -0.196560   0.000718
     9  S   -0.016514   0.066850
    10  C   -0.385313   0.007479
    11  C   -0.656875   0.279745
    12  C   -0.479651  -0.125091
    13  C   -0.535096   0.262578
    14  C   -0.543918  -0.106048
    15  C    0.272042  -0.063172
    16  C   -0.059237   0.112706
    17  C   -0.048668  -0.045467
    18  C    0.137993   0.138924
    19  C   -0.380045   0.002187
    20  C   -0.216965  -0.011773
    21  C   -0.145671   0.004557
    22  C    0.242108  -0.000380
    23  O   -0.364946   0.000046
    24  O   -0.305926  -0.000079
    25  C    0.331952   0.143655
    26  C   -0.043060  -0.098024
    27  C   -0.013552   0.180210
    28  C    0.225116  -0.073427
    29  C   -0.446213   0.006234
    30  C   -0.171564  -0.264700
    31  C   -0.345362   0.418579
    32  C    0.343812  -0.055259
    33  C   -0.135437   0.152386
    34  C    0.063983  -0.043752
    35  C    0.208408   0.125860
    36  C   -0.391543  -0.011343
    37  C   -0.172234   0.006699
    38  C   -0.275120   0.002153
    39  C    0.332076   0.121436
    40  C   -0.107191  -0.036824
    41  C   -0.076598   0.098504
    42  C    0.269586  -0.058232
    43  C   -0.413055   0.001734
    44  C   -0.207693  -0.009924
    45  C   -0.219809   0.003656
    46  C    0.310079   0.001546
    47  O   -0.349110   0.000177
    48  O   -0.346762  -0.000090
    49  N    0.015633  -0.035073
    50  N    0.002750  -0.023011
    51  N   -0.064819  -0.038387
    52  N    0.030492  -0.034092
    53  Fe  -0.136267   2.963361
    54  H    0.121168  -0.000025
    55  H    0.112911   0.000978
    56  H    0.141012   0.000329
    57  H    0.165581  -0.000091
    58  H    0.110140   0.000569
    59  H    0.162669  -0.000223
    60  H    0.150348   0.000625
    61  H    0.147156   0.004464
    62  H    0.355520  -0.000026
    63  H    0.346211   0.000244
    64  H    0.141202  -0.000260
    65  H    0.096696  -0.000055
    66  H    0.133410   0.002123
    67  H    0.122774   0.001521
    68  H    0.114745   0.000926
    69  H    0.099268  -0.000436
    70  H    0.121584   0.003400
    71  H    0.127028   0.000715
    72  H    0.143066  -0.000909
    73  H    0.115493  -0.000345
    74  H    0.136079  -0.000980
    75  H    0.095427   0.005086
    76  H    0.124919  -0.014613
    77  H    0.128319  -0.000229
    78  H    0.133312  -0.000521
    79  H    0.135338  -0.000146
    80  H    0.074961   0.004336
    81  H    0.072029  -0.014059
    82  H    0.163050  -0.003308
    83  H    0.117153  -0.000474
    84  H    0.146351  -0.002101
    85  H    0.129743   0.001772
    86  H    0.151343   0.005760
    87  H    0.123337   0.002203
    88  H    0.179600   0.000643
    89  H    0.229865   0.001427
    90  H    0.150608   0.001353
    91  H    0.150265   0.000027
    92  H    0.148810   0.000048
    93  H    0.117175   0.000136
    94  H    0.104528  -0.000763
    95  H    0.117671  -0.000176
    96  H    0.122639  -0.000110
    97  H    0.119357   0.018106
    98  H    0.126262  -0.022789
    99  H    0.162288  -0.020150
 Sum of Mulliken charges =  -0.00000   4.00000

 Dipole moment (field-independent basis, Debye):
    X=              1.5437    Y=              5.8408    Z=              4.9784  Tot=              7.8283
 Quadrupole moment (field-independent basis, Debye-Ang):
   XX=           -334.6308   YY=           -306.6206   ZZ=           -290.3058
   XY=             24.0636   XZ=             -8.9668   YZ=            -20.2822

 Summary of Natural Population Analysis:

                                       Natural Population
                Natural  -----------------------------------------------
    Atom  No    Charge         Core      Valence    Rydberg      Total
 -----------------------------------------------------------------------
      C    1   -0.31932      0.99969     2.31642    0.00320     3.31932
      C    2    0.05151      0.99954     1.93987    0.00907     2.94849
      N    3   -0.23668      0.99968     2.72686    0.01014     3.73668
      C    4   -0.03210      0.99943     2.02331    0.00936     3.03210
      C    5    0.09634      0.99966     1.89312    0.01089     2.90366
      N    6   -0.15760      0.99972     2.63726    0.02063     3.65760
      C    7   -0.30869      0.99972     2.30440    0.00456     3.30869
      C    8   -0.26667      0.99966     2.25762    0.00940     3.26667
      S    9    0.27549      4.99950     2.70546    0.01955     7.72451
      C   10   -0.36484      0.99963     2.35757    0.00764     3.36484
      C   11   -0.05366      0.99953     2.04631    0.00782     3.05366
      C   12   -0.14832      0.99948     2.14042    0.00842     3.14832
      C   13   -0.05526      0.99949     2.04760    0.00817     3.05526
      C   14   -0.15129      0.99949     2.14367    0.00813     3.15129
      C   15    0.07047      0.99955     1.91954    0.01044     2.92953
      C   16    0.02073      0.99946     1.97040    0.00941     2.97927
      C   17   -0.02090      0.99944     2.01329    0.00817     3.02090
      C   18    0.10483      0.99949     1.88501    0.01067     2.89517
      C   19   -0.31633      0.99969     2.31298    0.00367     3.31633
      C   20   -0.21574      0.99966     2.20904    0.00703     3.21574
      C   21   -0.24664      0.99962     2.23861    0.00840     3.24664
      C   22    0.38786      0.99976     1.59387    0.01851     2.61214
      O   23   -0.30096      0.99989     3.28877    0.01230     4.30096
      O   24   -0.32976      0.99980     3.31517    0.01480     4.32976
      C   25    0.11134      0.99947     1.87854    0.01065     2.88866
      C   26   -0.03089      0.99946     2.02301    0.00842     3.03089
      C   27    0.01213      0.99946     1.97850    0.00992     2.98787
      C   28    0.08657      0.99954     1.90338    0.01050     2.91343
      C   29   -0.31513      0.99969     2.31159    0.00386     3.31513
      C   30   -0.20397      0.99962     2.19472    0.00963     3.20397
      C   31   -0.02163      0.99971     2.01553    0.00640     3.02163
      C   32    0.07381      0.99952     1.91608    0.01059     2.92619
      C   33    0.05438      0.99948     1.93803    0.00811     2.94562
      C   34   -0.06221      0.99949     2.05310    0.00962     3.06221
      C   35    0.11721      0.99953     1.87277    0.01048     2.88279
      C   36   -0.32012      0.99969     2.31670    0.00373     3.32012
      C   37   -0.09797      0.99962     2.08985    0.00849     3.09797
      C   38   -0.19296      0.99970     2.18722    0.00604     3.19296
      C   39    0.10182      0.99950     1.88778    0.01090     2.89818
      C   40   -0.02221      0.99936     2.01435    0.00849     3.02221
      C   41    0.01682      0.99944     1.97451    0.00923     2.98318
      C   42    0.07039      0.99954     1.91964    0.01044     2.92961
      C   43   -0.31725      0.99970     2.31382    0.00372     3.31725
      C   44   -0.21270      0.99966     2.20573    0.00730     3.21270
      C   45   -0.25840      0.99962     2.25005    0.00872     3.25840
      C   46    0.39152      0.99974     1.59125    0.01749     2.60848
      O   47   -0.34177      0.99979     3.32713    0.01485     4.34177
      O   48   -0.28961      0.99989     3.27800    0.01172     4.28961
      N   49   -0.22378      0.99968     2.70243    0.02167     3.72378
      N   50   -0.21177      0.99970     2.69033    0.02174     3.71177
      N   51   -0.22816      0.99971     2.70694    0.02152     3.72816
      N   52   -0.21858      0.99968     2.69733    0.02157     3.71858
     Fe   53    1.62585      8.99520     2.35236    0.02659    11.37415
      H   54    0.10416      0.00000     0.39495    0.00089     0.39584
      H   55    0.10464      0.00000     0.39466    0.00070     0.39536
      H   56    0.11300      0.00000     0.38636    0.00064     0.38700
      H   57    0.12456      0.00000     0.37460    0.00085     0.37544
      H   58    0.10199      0.00000     0.39656    0.00145     0.39801
      H   59    0.12097      0.00000     0.37862    0.00041     0.37903
      H   60    0.11130      0.00000     0.38779    0.00092     0.38870
      H   61    0.11209      0.00000     0.38718    0.00073     0.38791
      H   62    0.25845      0.00000     0.24040    0.00115     0.24155
      H   63    0.26049      0.00000     0.23754    0.00196     0.23951
      H   64    0.12315      0.00000     0.37625    0.00060     0.37685
      H   65    0.10465      0.00000     0.39454    0.00081     0.39535
      H   66    0.11842      0.00000     0.38082    0.00075     0.38158
      H   67    0.11006      0.00000     0.38923    0.00071     0.38994
      H   68    0.11497      0.00000     0.38437    0.00066     0.38503
      H   69    0.11269      0.00000     0.38653    0.00077     0.38731
      H   70    0.11149      0.00000     0.38777    0.00074     0.38851
      H   71    0.11498      0.00000     0.38429    0.00073     0.38502
      H   72    0.11262      0.00000     0.38663    0.00075     0.38738
      H   73    0.10742      0.00000     0.39177    0.00081     0.39258
      H   74    0.10893      0.00000     0.39027    0.00080     0.39107
      H   75    0.10793      0.00000     0.39047    0.00160     0.39207
      H   76    0.11066      0.00000     0.38813    0.00121     0.38934
      H   77    0.10908      0.00000     0.39032    0.00060     0.39092
      H   78    0.10891      0.00000     0.39026    0.00083     0.39109
      H   79    0.10800      0.00000     0.39116    0.00084     0.39200
      H   80    0.10553      0.00000     0.39318    0.00129     0.39447
      H   81    0.10104      0.00000     0.39734    0.00162     0.39896
      H   82    0.11533      0.00000     0.38370    0.00097     0.38467
      H   83    0.10441      0.00000     0.39490    0.00068     0.39559
      H   84    0.10632      0.00000     0.39278    0.00090     0.39368
      H   85    0.11113      0.00000     0.38824    0.00063     0.38887
      H   86    0.11413      0.00000     0.38503    0.00083     0.38587
      H   87    0.10833      0.00000     0.39076    0.00091     0.39167
      H   88    0.11420      0.00000     0.38507    0.00073     0.38580
      H   89    0.20712      0.00000     0.29208    0.00079     0.29288
      H   90    0.11721      0.00000     0.38207    0.00072     0.38279
      H   91    0.11691      0.00000     0.38251    0.00058     0.38309
      H   92    0.11511      0.00000     0.38424    0.00065     0.38489
      H   93    0.10738      0.00000     0.39202    0.00060     0.39262
      H   94    0.10218      0.00000     0.39706    0.00076     0.39782
      H   95    0.09519      0.00000     0.40391    0.00091     0.40481
      H   96    0.09785      0.00000     0.40150    0.00066     0.40215
      H   97    0.11030      0.00000     0.38897    0.00073     0.38970
      H   98    0.08956      0.00000     0.40958    0.00086     0.41044
      H   99    0.08993      0.00000     0.40911    0.00096     0.41007
 =======================================================================
   * Total *    2.00000     64.97479   136.41275    0.61245   202.00000

 Normal termination of Gaussian 16 at Thu Sep  1 06:27:40 2022.
