 Gaussian 16, Revision A.03,

 ---------------------------------------------------------------------
 # polar def2tzvp empiricaldispersion=gd3bj int=grid=ultrafine pbe1pbe
 ---------------------------------------------------------------------

 ---------
 2v07_II_S
 ---------
 Symbolic Z-matrix:
 Charge =  0 Multiplicity = 1

 SCF Done:  E(RPBE1PBE) =  -3880.51637841     A.U. after   34 cycles

  Exact polarizability: 930.043 -57.664 986.354 -44.596 132.095 475.171
 Approx polarizability:2315.477********6701.991-667.4951896.9221288.018

 Normal termination of Gaussian 16 at Sat Feb  4 12:22:17 2023.
 Gaussian 16:  ES64L-G16RevA.03 25-Dec-2016

 ----------------------------------------------------------------------
 # PBE1PBE/def2TZVP empiricaldispersion=GD3BJ int=(grid=ultrafine) geom
 =check guess=read pop=nbo scf=qc
 ----------------------------------------------------------------------

 -------------
 2v07_II_S_nbo
 -------------
 Structure from the checkpoint file:  "2v07_II_S.chk"
 Charge =  0 Multiplicity = 1

                         Standard orientation:
 ---------------------------------------------------------------------
 Center     Atomic      Atomic             Coordinates (Angstroms)
 Number     Number       Type             X           Y           Z
 ---------------------------------------------------------------------
      1          6           0        2.635877   -1.638983    4.958577
      2          6           0        1.801230   -1.148534    3.811592
      3          7           0        0.450590   -0.932798    3.936438
      4          6           0        2.112573   -0.858916    2.521461
      5          6           0       -0.043074   -0.522250    2.774784
      6          7           0        0.939024   -0.489112    1.891057
      7          6           0       -1.294123    2.199588   -2.802054
      8          6           0       -0.592451    0.900961   -3.199964
      9         16           0        0.908497    0.606370   -2.317779
     10          6           0        1.693958   -0.650623   -3.275358
     11         26           0        0.848699   -0.019251   -0.058183
     12          6           0       -2.571388   -0.385287   -0.086204
     13          6           0        1.199898   -3.342925   -0.711993
     14          6           0        4.239082    0.409714   -0.370972
     15          6           0        0.541183    3.189911    0.910480
     16          7           0       -0.433139   -1.551629   -0.366872
     17          6           0       -1.817670   -1.506003   -0.285426
     18          6           0       -2.336442   -2.851345   -0.445198
     19          6           0       -1.293800   -3.665277   -0.646106
     20          6           0       -0.067681   -2.868655   -0.595232
     21          6           0       -1.326753   -5.184854   -0.865195
     22          6           0       -3.834926   -3.193411   -0.365303
     23          6           0       -4.268974   -3.131499    1.104885
     24          6           0       -5.762668   -3.289014    1.310033
     25          8           0       -6.522952   -3.084826    0.329892
     26          8           0       -6.204957   -3.577914    2.477059
     27          7           0        2.431507   -1.216684   -0.455735
     28          6           0        2.352638   -2.572832   -0.660349
     29          6           0        3.689220   -3.071583   -0.880976
     30          6           0        4.537472   -2.032681   -0.797047
     31          6           0        3.748648   -0.850893   -0.541728
     32          6           0        3.976966   -4.552128   -1.159422
     33          6           0        6.050732   -1.996162   -1.023151
     34          6           0        6.413860   -2.412289   -2.276366
     35          7           0        2.162400    1.511174    0.212943
     36          6           0        3.508630    1.478317    0.042338
     37          6           0        4.039829    2.775043    0.426839
     38          6           0        3.015409    3.559141    0.787093
     39          6           0        1.808123    2.765817    0.647298
     40          6           0        5.514830    3.139536    0.398534
     41          6           0        3.060123    5.004683    1.291858
     42          6           0        3.739480    5.970401    0.646033
     43          7           0       -0.726751    1.175356    0.343093
     44          6           0       -0.602949    2.520540    0.667553
     45          6           0       -1.918589    3.140556    0.717654
     46          6           0       -2.867797    2.038633    0.385826
     47          6           0       -2.071926    0.864436    0.183021
     48          6           0       -2.259970    4.610773    1.002925
     49          6           0       -4.382165    2.206095    0.284659
     50          6           0       -4.694381    2.682751   -1.140094
     51          6           0       -6.183836    2.915351   -1.362904
     52          8           0       -6.609867    3.117686   -2.516585
     53          8           0       -6.961065    2.922068   -0.399338
     54          1           0        2.191130   -2.519866    5.372276
     55          1           0        3.621663   -1.866932    4.610488
     56          1           0        2.689857   -0.879792    5.710651
     57          1           0        3.084370   -0.907845    2.076359
     58          1           0       -0.079529   -1.064784    4.774027
     59          1           0       -1.063612   -0.262105    2.585767
     60          1           0        0.981994   -1.086130   -3.944941
     61          1           0        2.496470   -0.221268   -3.837966
     62          1           0        2.079680   -1.406660   -2.623800
     63          1           0       -2.132699    1.974733   -2.176650
     64          1           0       -0.609621    2.826045   -2.269224
     65          1           0       -1.631158    2.706911   -3.681787
     66          1           0       -1.259613    0.083844   -3.020756
     67          1           0       -0.371474    0.939208   -4.246199
     68          1           0        5.976318    2.830032    1.312939
     69          1           0        5.988321    2.646528   -0.424660
     70          1           0        5.618423    4.198694    0.287395
     71          1           0        5.276656    0.569493   -0.577877
     72          1           0        3.116015   -5.005160   -1.604871
     73          1           0        4.808978   -4.634320   -1.827180
     74          1           0        4.206649   -5.049796   -0.240470
     75          1           0        7.282735   -3.033028   -2.208254
     76          1           0        5.611431   -2.968688   -2.713890
     77          1           0        6.631125   -1.560271   -2.886088
     78          1           0        6.751755   -1.678671   -0.279735
     79          1           0        3.369063    6.928455    0.945735
     80          1           0        4.779150    5.898194    0.888463
     81          1           0        3.610355    5.852351   -0.409567
     82          1           0        2.533122    5.255248    2.188734
     83          1           0        0.443750    4.157143    1.357547
     84          1           0       -3.097948    4.660090    1.666447
     85          1           0       -1.417816    5.091117    1.455636
     86          1           0       -2.501949    5.105253    0.085409
     87          1           0       -4.351927    1.944375   -1.834665
     88          1           0       -4.170501    3.597983   -1.321202
     89          1           0       -4.865278    1.269406    0.469366
     90          1           0       -4.716184    2.934468    0.993746
     91          1           0       -7.875426    2.654881   -0.518317
     92          1           0       -3.634720   -0.489335   -0.144511
     93          1           0        1.318960   -4.396549   -0.855522
     94          1           0       -2.277197   -5.466620   -1.267891
     95          1           0       -0.552729   -5.463424   -1.549435
     96          1           0       -1.173294   -5.683322    0.069086
     97          1           0       -4.000532   -4.178552   -0.748671
     98          1           0       -4.397172   -2.485007   -0.937091
     99          1           0       -3.767493   -3.909808    1.641217
    100          1           0       -3.967094   -2.188194    1.509787
    101          1           0       -7.459011   -3.286602    0.398294
 ---------------------------------------------------------------------

 SCF Done:  E(RPBE1PBE) =  -3880.51637841     a.u. after    1 cycles

 The electronic state is 1-A.
 Alpha  occ. eigenvalues -- -256.30719 -89.00855 -30.07607 -25.90419 -25.90142
 Alpha  occ. eigenvalues --  -25.89954 -19.27782 -19.26600 -19.17576 -19.16837
 Alpha  occ. eigenvalues --  -14.44522 -14.38980 -14.36687 -14.36626 -14.36089
 Alpha  occ. eigenvalues --  -14.35843 -10.35902 -10.34765 -10.27820 -10.25959
 Alpha  occ. eigenvalues --  -10.24179 -10.24143 -10.23990 -10.23764 -10.23761
 Alpha  occ. eigenvalues --  -10.23655 -10.23514 -10.23501 -10.23328 -10.23288
 Alpha  occ. eigenvalues --  -10.23171 -10.23168 -10.22982 -10.22918 -10.22896
 Alpha  occ. eigenvalues --  -10.22658 -10.22633 -10.22525 -10.22269 -10.21995
 Alpha  occ. eigenvalues --  -10.21677 -10.21563 -10.21468 -10.21458 -10.21374
 Alpha  occ. eigenvalues --  -10.21274 -10.21270 -10.21258 -10.21043 -10.20611
 Alpha  occ. eigenvalues --  -10.20562 -10.20496 -10.20156 -10.20025 -10.19875
 Alpha  occ. eigenvalues --  -10.19718 -10.19412  -7.98798  -5.92462  -5.92146
 Alpha  occ. eigenvalues --   -5.91615  -3.42046  -2.18028  -2.17439  -2.17153
 Alpha  occ. eigenvalues --   -1.17843  -1.17500  -1.06297  -1.01834  -1.00982
 Alpha  occ. eigenvalues --   -0.97291  -0.96307  -0.95868  -0.94490  -0.90704
 Alpha  occ. eigenvalues --   -0.84155  -0.83724  -0.83540  -0.83287  -0.82972
 Alpha  occ. eigenvalues --   -0.82711  -0.81243  -0.80845  -0.80598  -0.79041
 Alpha  occ. eigenvalues --   -0.78430  -0.77783  -0.77556  -0.76122  -0.75503
 Alpha  occ. eigenvalues --   -0.74238  -0.72841  -0.72619  -0.71947  -0.71043
 Alpha  occ. eigenvalues --   -0.69906  -0.69238  -0.68781  -0.66548  -0.66263
 Alpha  occ. eigenvalues --   -0.65725  -0.65173  -0.64621  -0.64544  -0.62138
 Alpha  occ. eigenvalues --   -0.61524  -0.61061  -0.59543  -0.58909  -0.57532
 Alpha  occ. eigenvalues --   -0.56493  -0.55806  -0.54654  -0.54433  -0.53310
 Alpha  occ. eigenvalues --   -0.52408  -0.52272  -0.51835  -0.51619  -0.51110
 Alpha  occ. eigenvalues --   -0.50682  -0.50461  -0.49470  -0.49465  -0.48775
 Alpha  occ. eigenvalues --   -0.48684  -0.48038  -0.47934  -0.47513  -0.47280
 Alpha  occ. eigenvalues --   -0.46325  -0.46175  -0.45849  -0.45752  -0.45515
 Alpha  occ. eigenvalues --   -0.45008  -0.44818  -0.44663  -0.44265  -0.44146
 Alpha  occ. eigenvalues --   -0.43962  -0.43847  -0.43485  -0.43407  -0.43339
 Alpha  occ. eigenvalues --   -0.43156  -0.43043  -0.42822  -0.42562  -0.42418
 Alpha  occ. eigenvalues --   -0.42290  -0.42237  -0.41764  -0.41032  -0.40741
 Alpha  occ. eigenvalues --   -0.40476  -0.40432  -0.40058  -0.39844  -0.39680
 Alpha  occ. eigenvalues --   -0.39449  -0.39370  -0.39111  -0.38580  -0.38527
 Alpha  occ. eigenvalues --   -0.38280  -0.38096  -0.37681  -0.37521  -0.37149
 Alpha  occ. eigenvalues --   -0.37015  -0.36684  -0.36387  -0.36171  -0.35926
 Alpha  occ. eigenvalues --   -0.35198  -0.34960  -0.34401  -0.33757  -0.33396
 Alpha  occ. eigenvalues --   -0.33138  -0.32481  -0.32106  -0.31936  -0.31836
 Alpha  occ. eigenvalues --   -0.31629  -0.30620  -0.29604  -0.28837  -0.28211
 Alpha  occ. eigenvalues --   -0.27845  -0.27543  -0.27110  -0.25532  -0.24971
 Alpha  occ. eigenvalues --   -0.24409  -0.23949  -0.22702  -0.22293  -0.19763
 Alpha  occ. eigenvalues --   -0.18981  -0.18597  -0.18276  -0.18059  -0.12973
 Alpha virt. eigenvalues --   -0.10631  -0.06547  -0.05754  -0.00302   0.00406
 Alpha virt. eigenvalues --    0.00613   0.01732   0.02185   0.02488   0.03233
 Alpha virt. eigenvalues --    0.03473   0.04025   0.04571   0.04723   0.05237

 Mulliken charges:
               1
     1  C   -0.390106
     2  C    0.169044
     3  N   -0.217297
     4  C   -0.205341
     5  C    0.014777
     6  N    0.060285
     7  C   -0.300054
     8  C   -0.190552
     9  S    0.035754
    10  C   -0.332589
    11  Fe  -0.370513
    12  C   -0.670388
    13  C   -0.529983
    14  C   -0.475162
    15  C   -0.517311
    16  N    0.056958
    17  C    0.273347
    18  C    0.022971
    19  C   -0.086435
    20  C    0.262061
    21  C   -0.410402
    22  C   -0.294048
    23  C   -0.186719
    24  C    0.266145
    25  O   -0.321013
    26  O   -0.406916
    27  N   -0.062816
    28  C    0.274579
    29  C   -0.096292
    30  C    0.084777
    31  C    0.090813
    32  C   -0.365625
    33  C   -0.294241
    34  C   -0.302641
    35  N    0.055726
    36  C    0.297067
    37  C   -0.067335
    38  C    0.008230
    39  C    0.245148
    40  C   -0.387075
    41  C   -0.299936
    42  C   -0.304677
    43  N    0.015126
    44  C    0.311085
    45  C   -0.075824
    46  C    0.046529
    47  C    0.170774
    48  C   -0.396991
    49  C   -0.276298
    50  C   -0.196796
    51  C    0.253414
    52  O   -0.378012
    53  O   -0.319960
    54  H    0.133612
    55  H    0.145807
    56  H    0.139702
    57  H    0.148570
    58  H    0.230334
    59  H    0.167255
    60  H    0.137842
    61  H    0.135552
    62  H    0.150563
    63  H    0.063160
    64  H    0.132814
    65  H    0.126115
    66  H    0.124552
    67  H    0.135287
    68  H    0.137559
    69  H    0.127387
    70  H    0.109192
    71  H    0.106609
    72  H    0.121354
    73  H    0.121371
    74  H    0.138034
    75  H    0.113794
    76  H    0.130208
    77  H    0.134754
    78  H    0.141156
    79  H    0.123006
    80  H    0.127963
    81  H    0.142049
    82  H    0.130074
    83  H    0.079198
    84  H    0.132741
    85  H    0.128551
    86  H    0.139039
    87  H    0.143138
    88  H    0.139428
    89  H    0.109755
    90  H    0.120305
    91  H    0.348288
    92  H    0.114095
    93  H    0.109688
    94  H    0.128067
    95  H    0.130215
    96  H    0.142546
    97  H    0.113882
    98  H    0.130746
    99  H    0.139887
   100  H    0.146204
   101  H    0.343294
 Sum of Mulliken charges =  -0.00000

 Dipole moment (field-independent basis, Debye):
    X=              0.7316    Y=             -1.4334    Z=              3.0712  Tot=              3.4673
 Quadrupole moment (field-independent basis, Debye-Ang):
   XX=           -307.5393   YY=           -316.5647   ZZ=           -315.4509
   XY=              4.4307   XZ=              0.9712   YZ=             18.3343

 Summary of Natural Population Analysis:

                                       Natural Population
                Natural  -----------------------------------------------
    Atom  No    Charge         Core      Valence    Rydberg      Total
 -----------------------------------------------------------------------
      C    1   -0.63811      1.99939     4.63252    0.00620     6.63811
      C    2    0.09884      1.99911     3.88289    0.01916     5.90116
      N    3   -0.48580      1.99936     5.46623    0.02020     7.48580
      C    4   -0.06793      1.99888     4.04981    0.01925     6.06793
      C    5    0.19264      1.99932     3.78813    0.01992     5.80736
      N    6   -0.32678      1.99936     5.27240    0.05502     7.32678
      C    7   -0.61346      1.99944     4.60563    0.00839     6.61346
      C    8   -0.55165      1.99934     4.53283    0.01949     6.55165
      S    9    0.58217      9.99862     5.37548    0.04373    15.41783
      C   10   -0.76927      1.99930     4.75125    0.01872     6.76927
     Fe   11   -0.05616     17.99098     8.01612    0.04906    26.05616
      C   12   -0.28101      1.99888     4.26376    0.01837     6.28101
      C   13   -0.24690      1.99889     4.23063    0.01738     6.24690
      C   14   -0.27532      1.99888     4.25776    0.01868     6.27532
      C   15   -0.23414      1.99885     4.21707    0.01823     6.23414
      N   16   -0.36043      1.99938     5.31555    0.04550     7.36043
      C   17    0.14801      1.99900     3.83202    0.02097     5.85199
      C   18   -0.04328      1.99875     4.02515    0.01939     6.04328
      C   19   -0.01517      1.99878     3.99971    0.01667     6.01517
      C   20    0.14469      1.99901     3.83493    0.02136     5.85531
      C   21   -0.63703      1.99940     4.63053    0.00710     6.63703
      C   22   -0.42406      1.99936     4.41075    0.01396     6.42406
      C   23   -0.49776      1.99925     4.48127    0.01725     6.49776
      C   24    0.76165      1.99953     3.20358    0.03523     5.23835
      O   25   -0.64505      1.99963     6.61923    0.02619     8.64505
      O   26   -0.62832      1.99981     6.60612    0.02239     8.62832
      N   27   -0.41281      1.99936     5.36692    0.04653     7.41281
      C   28    0.14499      1.99906     3.83386    0.02209     5.85501
      C   29   -0.05200      1.99876     4.03519    0.01806     6.05200
      C   30   -0.09452      1.99873     4.07375    0.02203     6.09452
      C   31    0.16068      1.99899     3.81849    0.02184     5.83932
      C   32   -0.63261      1.99940     4.62515    0.00806     6.63261
      C   33   -0.13792      1.99925     4.11551    0.02316     6.13792
      C   34   -0.67587      1.99929     4.65909    0.01749     6.67587
      N   35   -0.33279      1.99935     5.28479    0.04865     7.33279
      C   36    0.15806      1.99903     3.82120    0.02171     5.84194
      C   37   -0.04602      1.99879     4.02919    0.01804     6.04602
      C   38   -0.09723      1.99872     4.07679    0.02172     6.09723
      C   39    0.17100      1.99901     3.80770    0.02228     5.82900
      C   40   -0.63185      1.99940     4.62492    0.00752     6.63185
      C   41   -0.11262      1.99920     4.08966    0.02376     6.11262
      C   42   -0.68806      1.99923     4.67075    0.01809     6.68806
      N   43   -0.40206      1.99938     5.35711    0.04556     7.40206
      C   44    0.12870      1.99891     3.85109    0.02130     5.87130
      C   45   -0.00557      1.99916     3.98952    0.01690     6.00557
      C   46   -0.03970      1.99911     4.02278    0.01781     6.03970
      C   47    0.12398      1.99893     3.85511    0.02198     5.87602
      C   48   -0.64390      1.99937     4.63717    0.00737     6.64390
      C   49   -0.43263      1.99934     4.41980    0.01349     6.43263
      C   50   -0.49077      1.99926     4.47516    0.01635     6.49077
      C   51    0.76246      1.99956     3.20028    0.03771     5.23754
      O   52   -0.61732      1.99979     6.59297    0.02457     8.61732
      O   53   -0.65222      1.99959     6.62499    0.02764     8.65222
      H   54    0.21782      0.00000     0.78073    0.00145     0.78218
      H   55    0.23510      0.00000     0.76396    0.00094     0.76490
      H   56    0.21937      0.00000     0.77915    0.00148     0.78063
      H   57    0.23597      0.00000     0.76241    0.00162     0.76403
      H   58    0.41290      0.00000     0.58539    0.00171     0.58710
      H   59    0.22704      0.00000     0.77100    0.00197     0.77296
      H   60    0.22231      0.00000     0.77625    0.00144     0.77769
      H   61    0.22195      0.00000     0.77696    0.00109     0.77805
      H   62    0.25387      0.00000     0.74467    0.00146     0.74613
      H   63    0.21828      0.00000     0.77938    0.00234     0.78172
      H   64    0.22234      0.00000     0.77541    0.00226     0.77766
      H   65    0.21231      0.00000     0.78635    0.00135     0.78769
      H   66    0.21495      0.00000     0.78272    0.00234     0.78505
      H   67    0.21804      0.00000     0.78051    0.00145     0.78196
      H   68    0.21690      0.00000     0.78110    0.00200     0.78310
      H   69    0.21563      0.00000     0.78299    0.00138     0.78437
      H   70    0.21227      0.00000     0.78550    0.00223     0.78773
      H   71    0.22299      0.00000     0.77396    0.00305     0.77701
      H   72    0.21298      0.00000     0.78566    0.00136     0.78702
      H   73    0.21463      0.00000     0.78344    0.00192     0.78537
      H   74    0.22009      0.00000     0.77804    0.00187     0.77991
      H   75    0.21540      0.00000     0.78243    0.00217     0.78460
      H   76    0.22385      0.00000     0.77452    0.00163     0.77615
      H   77    0.23200      0.00000     0.76445    0.00354     0.76800
      H   78    0.20184      0.00000     0.79635    0.00181     0.79816
      H   79    0.22564      0.00000     0.77297    0.00139     0.77436
      H   80    0.22698      0.00000     0.76925    0.00377     0.77302
      H   81    0.23101      0.00000     0.76634    0.00264     0.76899
      H   82    0.19299      0.00000     0.80525    0.00177     0.80701
      H   83    0.21571      0.00000     0.78009    0.00420     0.78429
      H   84    0.21896      0.00000     0.77947    0.00157     0.78104
      H   85    0.21920      0.00000     0.77950    0.00129     0.78080
      H   86    0.22047      0.00000     0.77774    0.00178     0.77953
      H   87    0.24185      0.00000     0.75676    0.00138     0.75815
      H   88    0.24079      0.00000     0.75776    0.00146     0.75921
      H   89    0.20987      0.00000     0.78804    0.00209     0.79013
      H   90    0.22026      0.00000     0.77728    0.00247     0.77974
      H   91    0.51406      0.00000     0.48280    0.00314     0.48594
      H   92    0.21212      0.00000     0.78546    0.00242     0.78788
      H   93    0.21716      0.00000     0.78006    0.00278     0.78284
      H   94    0.21561      0.00000     0.78281    0.00158     0.78439
      H   95    0.21797      0.00000     0.78060    0.00143     0.78203
      H   96    0.21956      0.00000     0.77887    0.00157     0.78044
      H   97    0.21708      0.00000     0.78138    0.00155     0.78292
      H   98    0.22063      0.00000     0.77768    0.00169     0.77937
      H   99    0.24326      0.00000     0.75543    0.00131     0.75674
      H  100    0.24391      0.00000     0.75476    0.00133     0.75609
      H  101    0.51233      0.00000     0.48453    0.00313     0.48767
 =======================================================================
   * Total *   -0.00000    129.94848   278.74839    1.30313   410.00000

 Normal termination of Gaussian 16 at Sat Feb  4 13:06:04 2023.
