 Gaussian 16, Revision A.03,

 ----------------------------------------------------------------------
 # PBE1PBE/def2TZVP empiricaldispersion=GD3BJ int=(grid=ultrafine) geom
 =check pop=nbo
 ----------------------------------------------------------------------

 ----------
 1cce_III_H
 ----------
 Structure from the checkpoint file:  "1cce_III_H.chk"
 Charge =  1 Multiplicity = 6

 SCF Done:  E(UPBE1PBE) =  -3248.97812631     A.U. after   51 cycles

 Summary of Natural Population Analysis:

                                       Natural Population
                Natural  -----------------------------------------------
    Atom  No    Charge         Core      Valence    Rydberg      Total
 -----------------------------------------------------------------------
      C    1   -0.09607      0.99955     2.08876    0.00775     3.09607
      C    2   -0.06861      0.99955     2.06186    0.00720     3.06861
      C    3   -0.02702      0.99955     2.01970    0.00777     3.02702
      C    4   -0.09862      0.99954     2.09133    0.00775     3.09862
      C    5    0.06211      0.99947     1.92775    0.01067     2.93789
      C    6   -0.01021      0.99944     2.00122    0.00955     3.01021
      C    7   -0.00198      0.99947     1.99466    0.00786     3.00198
      C    8    0.05817      0.99949     1.93151    0.01083     2.94183
      C    9   -0.31824      0.99970     2.31479    0.00375     3.31824
      C   10   -0.20644      0.99966     2.19952    0.00727     3.20644
      C   11   -0.25266      0.99964     2.24447    0.00855     3.25266
      C   12    0.37881      0.99976     1.60262    0.01881     2.62119
      O   13   -0.28015      0.99988     3.26751    0.01276     4.28015
      O   14   -0.32422      0.99978     3.30797    0.01647     4.32422
      C   15    0.03515      0.99952     1.95504    0.01029     2.96485
      C   16    0.13784      0.99946     1.85476    0.00794     2.86216
      C   17   -0.10756      0.99943     2.09820    0.00992     3.10756
      C   18    0.07867      0.99954     1.91188    0.00991     2.92133
      C   19   -0.32399      0.99969     2.32087    0.00343     3.32399
      C   20    0.05748      0.99954     1.93529    0.00769     2.94252
      C   21    0.35052      0.99899     1.63841    0.01208     2.64948
      C   22    0.02237      0.99946     1.96708    0.01109     2.97763
      C   23    0.16758      0.99926     1.82214    0.01102     2.83242
      C   24   -0.06832      0.99942     2.05951    0.00939     3.06832
      C   25    0.06942      0.99952     1.91998    0.01108     2.93058
      C   26   -0.46954      0.99937     2.43962    0.03055     3.46954
      C   27    0.02483      0.99963     1.96993    0.00560     2.97517
      C   28    0.31155      0.99913     1.68006    0.00926     2.68845
      C   29    0.06093      0.99949     1.92860    0.01098     2.93907
      C   30   -0.00301      0.99940     1.99504    0.00858     3.00301
      C   31   -0.00905      0.99942     1.99974    0.00989     3.00905
      C   32    0.06219      0.99950     1.92776    0.01054     2.93781
      C   33   -0.31860      0.99970     2.31511    0.00380     3.31860
      C   34   -0.21541      0.99968     2.20830    0.00744     3.21541
      C   35   -0.25168      0.99963     2.24319    0.00886     3.25168
      C   36    0.38131      0.99975     1.59978    0.01917     2.61869
      O   37   -0.28258      0.99989     3.27023    0.01247     4.28258
      O   38   -0.33603      0.99977     3.32098    0.01528     4.33603
      N   39   -0.21005      0.99964     2.68648    0.02393     3.71005
      N   40   -0.13497      0.99965     2.61471    0.02061     3.63497
      N   41   -0.17077      0.99960     2.64893    0.02225     3.67077
      N   42   -0.23329      0.99965     2.71375    0.01988     3.73329
     Fe   43    1.13932      8.99197     2.85171    0.01699    11.86068
      O   44   -0.38660      0.99991     3.37834    0.00835     4.38660
      O   45   -0.36028      0.99992     3.34528    0.01509     4.36028
      H   46    0.10328      0.00000     0.39516    0.00155     0.39672
      H   47    0.10703      0.00000     0.39156    0.00141     0.39297
      H   48    0.10551      0.00000     0.39308    0.00141     0.39449
      H   49    0.10320      0.00000     0.39540    0.00140     0.39680
      H   50    0.10858      0.00000     0.39083    0.00059     0.39142
      H   51    0.11799      0.00000     0.38127    0.00075     0.38201
      H   52    0.11621      0.00000     0.38306    0.00073     0.38379
      H   53    0.10494      0.00000     0.39414    0.00092     0.39506
      H   54    0.12218      0.00000     0.37681    0.00101     0.37782
      H   55    0.12003      0.00000     0.37911    0.00085     0.37997
      H   56    0.10078      0.00000     0.39810    0.00112     0.39922
      H   57    0.12188      0.00000     0.37747    0.00065     0.37812
      H   58    0.12100      0.00000     0.37829    0.00071     0.37900
      H   59    0.11525      0.00000     0.38419    0.00056     0.38475
      H   60    0.14084      0.00000     0.35852    0.00063     0.35916
      H   61    0.12422      0.00000     0.37529    0.00049     0.37578
      H   62    0.12250      0.00000     0.37640    0.00110     0.37750
      H   63    0.20288      0.00000     0.29635    0.00077     0.29712
      H   64    0.21265      0.00000     0.28605    0.00130     0.28735
      H   65    0.21601      0.00000     0.28296    0.00103     0.28399
      H   66    0.11722      0.00000     0.38189    0.00089     0.38278
      H   67    0.09451      0.00000     0.40486    0.00063     0.40549
      H   68    0.07949      0.00000     0.41935    0.00116     0.42051
      H   69    0.11347      0.00000     0.38585    0.00068     0.38653
      H   70    0.11816      0.00000     0.38113    0.00072     0.38184
      H   71    0.11128      0.00000     0.38815    0.00057     0.38872
      H   72    0.11296      0.00000     0.38615    0.00089     0.38704
      H   73    0.11541      0.00000     0.38366    0.00093     0.38459
      H   74    0.11522      0.00000     0.38389    0.00089     0.38478
      H   75    0.11949      0.00000     0.37976    0.00075     0.38051
      H   76    0.25280      0.00000     0.24590    0.00130     0.24720
      H   77    0.25530      0.00000     0.24305    0.00164     0.24470
      H   78    0.21165      0.00000     0.28474    0.00361     0.28835
      H   79    0.24675      0.00000     0.25225    0.00100     0.25325
      H   80    0.26266      0.00000     0.23614    0.00120     0.23734
      H   81    0.25441      0.00000     0.24446    0.00113     0.24559
 =======================================================================
   * Total *    3.00000     52.97301   114.46963    0.55736   168.00000

 Normal termination of Gaussian 16 at Tue Sep 20 00:15:56 2022.
 Gaussian 16:  ES64L-G16RevA.03 25-Dec-2016

 ----------------------------------------------------------------------
 # PBE1PBE/def2TZVP empiricaldispersion=GD3BJ int=(grid=ultrafine) geom
 =check guess=read scrf=(smd,solvent=Chloroform)
 ----------------------------------------------------------------------

 ---------------
 1cce_III_H_solv
 ---------------
 Structure from the checkpoint file:  "1cce_III_H.chk"
 Charge =  1 Multiplicity = 6

                         Standard orientation:
 ---------------------------------------------------------------------
 Center     Atomic      Atomic             Coordinates (Angstroms)
 Number     Number       Type             X           Y           Z
 ---------------------------------------------------------------------
      1          6           0        2.215484   -0.034313   -0.468490
      2          6           0       -1.124328   -3.435501    0.033210
      3          6           0       -4.473291   -0.021934    0.043667
      4          6           0       -1.062382    3.310246    0.023569
      5          6           0        1.611099   -1.296830   -0.349515
      6          6           0        2.323720   -2.480111   -0.313105
      7          6           0        1.348523   -3.500464   -0.227404
      8          6           0        0.129757   -2.832754   -0.119690
      9          6           0        1.539919   -5.008531   -0.317125
     10          6           0        3.841227   -2.531964   -0.435963
     11          6           0        4.570689   -2.742716    0.872777
     12          6           0        6.093415   -2.861194    0.807805
     13          8           0        6.621235   -3.874269    0.364406
     14          8           0        6.814177   -1.962617    1.233293
     15          6           0       -2.387413   -2.820475   -0.002318
     16          6           0       -3.609475   -3.511460   -0.068331
     17          6           0       -4.585953   -2.507799   -0.114796
     18          6           0       -3.883671   -1.293382   -0.058715
     19          6           0       -3.753549   -5.033739   -0.192963
     20          6           0       -5.983958   -2.575512   -0.200172
     21          6           0       -6.845188   -3.744108   -0.264294
     22          6           0       -3.864962    1.228138    0.165479
     23          6           0       -4.525987    2.429559    0.411385
     24          6           0       -3.501120    3.400403    0.437684
     25          6           0       -2.321978    2.706560    0.173346
     26          6           0       -6.019771    2.577510    0.652748
     27          6           0       -3.492219    4.791514    0.642049
     28          6           0       -4.594230    5.718064    0.808893
     29          6           0        0.188112    2.744433   -0.117602
     30          6           0        1.352683    3.433818   -0.430946
     31          6           0        2.300255    2.453684   -0.596719
     32          6           0        1.648320    1.247063   -0.345634
     33          6           0        1.615391    4.926534   -0.599629
     34          6           0        3.747742    2.704319   -0.993064
     35          6           0        4.661098    2.395575    0.164091
     36          6           0        6.130769    2.605574   -0.056171
     37          8           0        6.901481    2.219508    0.820036
     38          8           0        6.527814    3.134318   -1.084460
     39          7           0        0.298328   -1.514080   -0.223336
     40          7           0       -2.561667   -1.500946   -0.077988
     41          7           0       -2.537976    1.404342    0.093476
     42          7           0        0.376959    1.437161    0.007086
     43         26           0       -1.107873   -0.026320   -0.060815
     44          8           0       -0.925722   -0.369372    1.918194
     45          8           0       -1.171312    0.359346   -2.029312
     46          1           0        3.263285   -0.049652   -0.684771
     47          1           0       -1.120817   -4.492881    0.197024
     48          1           0       -5.543079   -0.010633    0.025623
     49          1           0       -1.074684    4.380161    0.018084
     50          1           0        0.688487   -5.501752    0.103227
     51          1           0        1.647199   -5.294051   -1.342732
     52          1           0        2.418556   -5.289430    0.225086
     53          1           0        4.136965   -1.562601   -0.779147
     54          1           0        4.054099   -3.397188   -1.028391
     55          1           0        4.231602   -3.691851    1.232030
     56          1           0        4.383375   -1.856862    1.442932
     57          1           0       -4.365410   -5.400570    0.604509
     58          1           0       -4.208955   -5.273278   -1.131114
     59          1           0       -2.786767   -5.489089   -0.139210
     60          1           0       -6.488480   -1.632156   -0.221085
     61          1           0       -7.788874   -3.905549   -0.742095
     62          1           0       -6.540043   -3.689126   -1.288385
     63          1           0       -6.694727    3.383886    0.455028
     64          1           0       -5.652036    3.296195    1.355002
     65          1           0       -6.011176    2.561077   -0.417092
     66          1           0       -2.519527    5.235700    0.680405
     67          1           0       -4.839037    5.797816    1.847455
     68          1           0       -5.445616    5.360749    0.268182
     69          1           0        2.518659    5.189551   -0.089895
     70          1           0        1.713207    5.156124   -1.640119
     71          1           0        0.798631    5.481266   -0.187225
     72          1           0        3.836551    3.753702   -1.182294
     73          1           0        3.980888    2.000036   -1.764121
     74          1           0        4.550947    1.345094    0.335138
     75          1           0        4.390074    3.093417    0.928592
     76          1           0       -1.329726   -0.099500    2.746173
     77          1           0       -0.062202    0.041647    1.834548
     78          1           0       -1.575316    0.629218   -1.201333
     79          1           0       -0.307792    0.770365   -2.112958
     80          1           0        6.948956    3.996294   -1.049296
     81          1           0        6.694223   -1.633694    2.127173
 ---------------------------------------------------------------------

 SCF Done:  E(UPBE1PBE) =  -3249.09225618     A.U. after   36 cycles

 Alpha virt. eigenvalues --    0.32286   0.32630   0.32832   0.33066   0.33243
 Alpha virt. eigenvalues --    0.33457   0.33790   0.33908   0.34026   0.34432
 Alpha virt. eigenvalues --    0.34510   0.35048   0.35288   0.35831   0.35914

  Beta  occ. eigenvalues -- -256.36188 -30.10586 -25.94580 -25.93673 -25.92281
  Beta  occ. eigenvalues --  -19.26345 -19.26122 -19.24842 -19.22287 -19.19076
  Beta  occ. eigenvalues --  -19.18502 -14.42731 -14.40647 -14.39701 -14.39573
  Beta  occ. eigenvalues --  -10.36009 -10.35552 -10.33078 -10.29943 -10.29107
  Beta  occ. eigenvalues --  -10.29035 -10.28910 -10.28549 -10.28119 -10.27752
  Beta  occ. eigenvalues --  -10.27577 -10.27513 -10.27468 -10.27203 -10.27117
  Beta  occ. eigenvalues --  -10.26911 -10.26748 -10.25891 -10.25353 -10.25143
  Beta  occ. eigenvalues --  -10.25014 -10.24939 -10.24656 -10.24546 -10.24395
  Beta  occ. eigenvalues --  -10.24357 -10.23999 -10.23814 -10.23733 -10.23651
  Beta  occ. eigenvalues --  -10.23640 -10.23083 -10.23081 -10.22464  -3.43886
  Beta  occ. eigenvalues --   -2.22201  -2.18662  -2.16630  -1.19081  -1.18501
  Beta  occ. eigenvalues --   -1.08954  -1.07974  -1.05082  -1.04850  -1.04427
  Beta  occ. eigenvalues --   -1.03552  -1.03495  -1.02163  -0.89219  -0.89012
  Beta  occ. eigenvalues --   -0.87612  -0.86608  -0.85949  -0.84886  -0.84736
  Beta  occ. eigenvalues --   -0.82634  -0.81961  -0.81716  -0.80674  -0.78598
  Beta  occ. eigenvalues --   -0.78048  -0.77327  -0.75453  -0.74644  -0.73288
  Beta  occ. eigenvalues --   -0.71709  -0.70485  -0.70090  -0.69829  -0.68262
  Beta  occ. eigenvalues --   -0.67498  -0.67446  -0.66091  -0.62855  -0.62079
  Beta  occ. eigenvalues --   -0.61768  -0.60675  -0.59691  -0.59229  -0.58868
  Beta  occ. eigenvalues --   -0.57778  -0.56714  -0.56596  -0.55634  -0.54141
  Beta  occ. eigenvalues --   -0.53725  -0.53351  -0.53188  -0.53000  -0.52652
  Beta  occ. eigenvalues --   -0.52067  -0.51207  -0.50981  -0.50723  -0.50270
  Beta  occ. eigenvalues --   -0.49399  -0.48982  -0.48513  -0.48168  -0.47866
  Beta  occ. eigenvalues --   -0.47796  -0.47468  -0.47122  -0.46850  -0.46465
  Beta  occ. eigenvalues --   -0.46146  -0.46004  -0.45168  -0.44907  -0.44401
  Beta  occ. eigenvalues --   -0.44210  -0.43947  -0.43607  -0.43246  -0.43036
  Beta  occ. eigenvalues --   -0.42750  -0.42342  -0.41848  -0.41648  -0.41470
  Beta  occ. eigenvalues --   -0.41084  -0.40823  -0.40593  -0.40270  -0.40160
  Beta  occ. eigenvalues --   -0.39533  -0.39361  -0.39188  -0.38922  -0.38658
  Beta  occ. eigenvalues --   -0.38311  -0.37875  -0.36405  -0.36176  -0.35987
  Beta  occ. eigenvalues --   -0.35155  -0.34840  -0.34267  -0.34165  -0.33690
  Beta  occ. eigenvalues --   -0.32782  -0.32188  -0.31008  -0.29783  -0.29491
  Beta  occ. eigenvalues --   -0.28898  -0.27373  -0.26466  -0.25891  -0.25042
  Beta  occ. eigenvalues --   -0.23500  -0.22478  -0.21948
  Beta virt. eigenvalues --   -0.14844  -0.14107  -0.11687  -0.11209  -0.08569
  Beta virt. eigenvalues --   -0.07026  -0.03593  -0.03225  -0.02435  -0.01573
  Beta virt. eigenvalues --   -0.00981  -0.00404   0.00504   0.01928   0.02727

 Mulliken charges and spin densities:
               1          2
     1  C   -0.405423  -0.004749
     2  C   -0.483254  -0.047469
     3  C   -0.563168   0.225890
     4  C   -0.485008   0.051033
     5  C    0.258981  -0.015654
     6  C    0.003609   0.009164
     7  C   -0.131759  -0.015013
     8  C    0.338190   0.007527
     9  C   -0.413156   0.000340
    10  C   -0.337039  -0.001378
    11  C   -0.196130   0.000502
    12  C    0.301854   0.000037
    13  O   -0.394537  -0.000011
    14  O   -0.330576   0.000006
    15  C    0.288363  -0.032807
    16  C   -0.096215   0.149936
    17  C   -0.092754  -0.028392
    18  C    0.351842  -0.065269
    19  C   -0.376223  -0.005396
    20  C    0.027913   0.114463
    21  C   -0.244843   0.978340
    22  C    0.300233  -0.108591
    23  C   -0.171878   0.336913
    24  C   -0.033844  -0.060999
    25  C    0.275557  -0.058511
    26  C   -0.712263   0.160908
    27  C   -0.009981   0.264463
    28  C   -0.351264   0.948044
    29  C    0.250803  -0.045791
    30  C   -0.082633   0.014086
    31  C    0.031586  -0.012881
    32  C    0.196584  -0.008759
    33  C   -0.438850  -0.000368
    34  C   -0.262738   0.001068
    35  C   -0.194156  -0.000674
    36  C    0.258536  -0.000114
    37  O   -0.389808  -0.000120
    38  O   -0.343883   0.000009
    39  N   -0.027995  -0.047272
    40  N   -0.041932   0.098223
    41  N   -0.061150   0.040308
    42  N   -0.246587   0.001831
    43  Fe  -0.146624   2.003883
    44  O   -0.551686   0.029724
    45  O   -0.469284   0.065166
    46  H    0.138877   0.000034
    47  H    0.153760   0.001747
    48  H    0.153809  -0.010409
    49  H    0.130090  -0.001667
    50  H    0.146441  -0.000181
    51  H    0.164400  -0.000639
    52  H    0.154547  -0.000192
    53  H    0.127787   0.000129
    54  H    0.138478   0.000080
    55  H    0.138369  -0.000018
    56  H    0.119966  -0.000083
    57  H    0.167568   0.005040
    58  H    0.160248   0.007151
    59  H    0.148869   0.003730
    60  H    0.191935   0.044320
    61  H    0.226667   0.014276
    62  H    0.213481  -0.013423
    63  H    0.304977   0.006181
    64  H    0.295487   0.004047
    65  H    0.298036  -0.001901
    66  H    0.161833   0.012079
    67  H    0.184046  -0.008403
    68  H    0.166220  -0.009661
    69  H    0.156785   0.000163
    70  H    0.169511   0.000376
    71  H    0.150090   0.000004
    72  H    0.128376   0.000047
    73  H    0.135823  -0.000503
    74  H    0.119928   0.000037
    75  H    0.148449   0.000011
    76  H    0.362636   0.007542
    77  H    0.364158   0.001092
    78  H    0.233027  -0.005469
    79  H    0.363325   0.002819
    80  H    0.395094  -0.000006
    81  H    0.389498  -0.000001
 Sum of Mulliken charges =   1.00000   5.00000

 Dipole moment (field-independent basis, Debye):
    X=            -20.1802    Y=              6.2243    Z=              1.4285  Tot=             21.1665
 Quadrupole moment (field-independent basis, Debye-Ang):
   XX=           -182.3982   YY=           -175.5462   ZZ=           -257.4830
   XY=             55.5426   XZ=              8.7639   YZ=              1.9847

 Normal termination of Gaussian 16 at Tue Sep 20 10:44:26 2022.
