 Gaussian 16, Revision A.03,

 ----------------------------------------------------------------------
 # PBE1PBE/def2TZVP empiricaldispersion=GD3BJ int=(grid=ultrafine) geom
 =check pop=nbo
 ----------------------------------------------------------------------

 ----------
 1cce_III_D
 ----------
 Structure from the checkpoint file:  "1cce_III_D.chk"
 Charge =  1 Multiplicity = 2

 SCF Done:  E(UPBE1PBE) =  -3249.00076604     A.U. after   83 cycles

 Summary of Natural Population Analysis:

                                       Natural Population
                Natural  -----------------------------------------------
    Atom  No    Charge         Core      Valence    Rydberg      Total
 -----------------------------------------------------------------------
      C    1   -0.09036      0.99955     2.08322    0.00758     3.09036
      C    2   -0.06468      0.99955     2.05806    0.00707     3.06468
      C    3   -0.16219      0.99955     2.15469    0.00795     3.16219
      C    4   -0.11015      0.99954     2.10290    0.00771     3.11015
      C    5    0.08564      0.99947     1.90459    0.01030     2.91436
      C    6   -0.00818      0.99944     1.99920    0.00954     3.00818
      C    7    0.00892      0.99946     1.98379    0.00783     2.99108
      C    8    0.07778      0.99949     1.91202    0.01071     2.92222
      C    9   -0.31853      0.99970     2.31511    0.00373     3.31853
      C   10   -0.20661      0.99966     2.19972    0.00723     3.20661
      C   11   -0.25228      0.99964     2.24409    0.00855     3.25228
      C   12    0.37871      0.99976     1.60272    0.01881     2.62129
      O   13   -0.27965      0.99988     3.26701    0.01276     4.27965
      O   14   -0.32406      0.99978     3.30781    0.01647     4.32406
      C   15    0.08611      0.99951     1.90382    0.01056     2.91389
      C   16   -0.01979      0.99947     2.01194    0.00838     3.01979
      C   17   -0.05147      0.99943     2.04186    0.01019     3.05147
      C   18    0.12842      0.99953     1.86207    0.00998     2.87158
      C   19   -0.31701      0.99969     2.31355    0.00377     3.31701
      C   20   -0.10049      0.99955     2.09242    0.00852     3.10049
      C   21    0.28737      0.99899     1.70063    0.01301     2.71263
      C   22    0.10221      0.99946     1.88715    0.01118     2.89779
      C   23   -0.08961      0.99929     2.07899    0.01133     3.08961
      C   24    0.00971      0.99941     1.98128    0.00959     2.99029
      C   25    0.10661      0.99952     1.88304    0.01084     2.89339
      C   26   -0.63094      0.99956     2.60076    0.03062     3.63094
      C   27   -0.26545      0.99964     2.25836    0.00745     3.26545
      C   28    0.24749      0.99919     1.74386    0.00946     2.75251
      C   29    0.08963      0.99949     1.89983    0.01106     2.91037
      C   30   -0.00693      0.99940     1.99900    0.00853     3.00693
      C   31    0.00378      0.99942     1.98694    0.00986     2.99622
      C   32    0.07708      0.99950     1.91290    0.01051     2.92292
      C   33   -0.31859      0.99970     2.31510    0.00380     3.31859
      C   34   -0.21597      0.99968     2.20887    0.00743     3.21597
      C   35   -0.25100      0.99963     2.24253    0.00885     3.25100
      C   36    0.38130      0.99975     1.59980    0.01916     2.61870
      O   37   -0.28216      0.99989     3.26981    0.01247     4.28216
      O   38   -0.33600      0.99977     3.32095    0.01528     4.33600
      N   39   -0.19189      0.99963     2.66962    0.02264     3.69189
      N   40   -0.22205      0.99964     2.69923    0.02317     3.72205
      N   41   -0.21534      0.99958     2.69451    0.02124     3.71534
      N   42   -0.23518      0.99964     2.71309    0.02245     3.73518
     Fe   43    0.13717      8.99208     3.85377    0.01698    12.86283
      O   44   -0.40041      0.99991     3.39164    0.00887     4.40041
      O   45   -0.39009      0.99991     3.37599    0.01419     4.39009
      H   46    0.10359      0.00000     0.39485    0.00156     0.39641
      H   47    0.10727      0.00000     0.39131    0.00142     0.39273
      H   48    0.11266      0.00000     0.38580    0.00154     0.38734
      H   49    0.10504      0.00000     0.39357    0.00139     0.39496
      H   50    0.10854      0.00000     0.39087    0.00059     0.39146
      H   51    0.11872      0.00000     0.38054    0.00074     0.38128
      H   52    0.11669      0.00000     0.38258    0.00072     0.38331
      H   53    0.10487      0.00000     0.39421    0.00092     0.39513
      H   54    0.12257      0.00000     0.37641    0.00101     0.37743
      H   55    0.12010      0.00000     0.37905    0.00085     0.37990
      H   56    0.10070      0.00000     0.39819    0.00111     0.39930
      H   57    0.11778      0.00000     0.38140    0.00082     0.38222
      H   58    0.11618      0.00000     0.38308    0.00074     0.38382
      H   59    0.11502      0.00000     0.38442    0.00056     0.38498
      H   60    0.14170      0.00000     0.35763    0.00067     0.35830
      H   61    0.12538      0.00000     0.37407    0.00055     0.37462
      H   62    0.11207      0.00000     0.38634    0.00159     0.38793
      H   63    0.20075      0.00000     0.29844    0.00081     0.29925
      H   64    0.20756      0.00000     0.29002    0.00242     0.29244
      H   65    0.21758      0.00000     0.28120    0.00123     0.28242
      H   66    0.11810      0.00000     0.38092    0.00099     0.38190
      H   67    0.08655      0.00000     0.41254    0.00091     0.41345
      H   68    0.06968      0.00000     0.42924    0.00108     0.43032
      H   69    0.11354      0.00000     0.38578    0.00068     0.38646
      H   70    0.11832      0.00000     0.38097    0.00071     0.38168
      H   71    0.11183      0.00000     0.38760    0.00057     0.38817
      H   72    0.11336      0.00000     0.38575    0.00089     0.38664
      H   73    0.11567      0.00000     0.38341    0.00092     0.38433
      H   74    0.11482      0.00000     0.38429    0.00089     0.38518
      H   75    0.11965      0.00000     0.37959    0.00075     0.38035
      H   76    0.25345      0.00000     0.24529    0.00126     0.24655
      H   77    0.25627      0.00000     0.24198    0.00175     0.24373
      H   78    0.22034      0.00000     0.27574    0.00393     0.27966
      H   79    0.24555      0.00000     0.25331    0.00114     0.25445
      H   80    0.26280      0.00000     0.23600    0.00119     0.23720
      H   81    0.25447      0.00000     0.24440    0.00113     0.24553
 =======================================================================
   * Total *    1.00000     52.97335   116.45905    0.56760   170.00000

 Normal termination of Gaussian 16 at Sat Sep 17 13:19:19 2022.
 Gaussian 16:  ES64L-G16RevA.03 25-Dec-2016

 ----------------------------------------------------------------------
 # PBE1PBE/def2TZVP empiricaldispersion=GD3BJ int=(grid=ultrafine) geom
 =check guess=read scrf=(smd,solvent=Chloroform)
 ----------------------------------------------------------------------

 ---------------
 1cce_III_D_solv
 ---------------
 Structure from the checkpoint file:  "1cce_III_D.chk"
 Charge =  1 Multiplicity = 2

                         Standard orientation:
 ---------------------------------------------------------------------
 Center     Atomic      Atomic             Coordinates (Angstroms)
 Number     Number       Type             X           Y           Z
 ---------------------------------------------------------------------
      1          6           0        2.215484   -0.034313   -0.468490
      2          6           0       -1.124328   -3.435501    0.033210
      3          6           0       -4.473291   -0.021934    0.043667
      4          6           0       -1.062382    3.310246    0.023569
      5          6           0        1.611099   -1.296830   -0.349515
      6          6           0        2.323720   -2.480111   -0.313105
      7          6           0        1.348523   -3.500464   -0.227404
      8          6           0        0.129757   -2.832754   -0.119690
      9          6           0        1.539919   -5.008531   -0.317125
     10          6           0        3.841227   -2.531964   -0.435963
     11          6           0        4.570689   -2.742716    0.872777
     12          6           0        6.093415   -2.861194    0.807805
     13          8           0        6.621235   -3.874269    0.364406
     14          8           0        6.814177   -1.962617    1.233293
     15          6           0       -2.387413   -2.820475   -0.002318
     16          6           0       -3.609475   -3.511460   -0.068331
     17          6           0       -4.585953   -2.507799   -0.114796
     18          6           0       -3.883671   -1.293382   -0.058715
     19          6           0       -3.753549   -5.033739   -0.192963
     20          6           0       -5.983958   -2.575512   -0.200172
     21          6           0       -6.845188   -3.744108   -0.264294
     22          6           0       -3.864962    1.228138    0.165479
     23          6           0       -4.525987    2.429559    0.411385
     24          6           0       -3.501120    3.400403    0.437684
     25          6           0       -2.321978    2.706560    0.173346
     26          6           0       -6.019771    2.577510    0.652748
     27          6           0       -3.492219    4.791514    0.642049
     28          6           0       -4.594230    5.718064    0.808893
     29          6           0        0.188112    2.744433   -0.117602
     30          6           0        1.352683    3.433818   -0.430946
     31          6           0        2.300255    2.453684   -0.596719
     32          6           0        1.648320    1.247063   -0.345634
     33          6           0        1.615391    4.926534   -0.599629
     34          6           0        3.747742    2.704319   -0.993064
     35          6           0        4.661098    2.395575    0.164091
     36          6           0        6.130769    2.605574   -0.056171
     37          8           0        6.901481    2.219508    0.820036
     38          8           0        6.527814    3.134318   -1.084460
     39          7           0        0.298328   -1.514080   -0.223336
     40          7           0       -2.561667   -1.500946   -0.077988
     41          7           0       -2.537976    1.404342    0.093476
     42          7           0        0.376959    1.437161    0.007086
     43         26           0       -1.107873   -0.026320   -0.060815
     44          8           0       -0.925722   -0.369372    1.918194
     45          8           0       -1.171312    0.359346   -2.029312
     46          1           0        3.263285   -0.049652   -0.684771
     47          1           0       -1.120817   -4.492881    0.197024
     48          1           0       -5.543079   -0.010633    0.025623
     49          1           0       -1.074684    4.380161    0.018084
     50          1           0        0.688487   -5.501752    0.103227
     51          1           0        1.647199   -5.294051   -1.342732
     52          1           0        2.418556   -5.289430    0.225086
     53          1           0        4.136965   -1.562601   -0.779147
     54          1           0        4.054099   -3.397188   -1.028391
     55          1           0        4.231602   -3.691851    1.232030
     56          1           0        4.383375   -1.856862    1.442932
     57          1           0       -4.365410   -5.400570    0.604509
     58          1           0       -4.208955   -5.273278   -1.131114
     59          1           0       -2.786767   -5.489089   -0.139210
     60          1           0       -6.488480   -1.632156   -0.221085
     61          1           0       -7.788874   -3.905549   -0.742095
     62          1           0       -6.540043   -3.689126   -1.288385
     63          1           0       -6.694727    3.383886    0.455028
     64          1           0       -5.652036    3.296195    1.355002
     65          1           0       -6.011176    2.561077   -0.417092
     66          1           0       -2.519527    5.235700    0.680405
     67          1           0       -4.839037    5.797816    1.847455
     68          1           0       -5.445616    5.360749    0.268182
     69          1           0        2.518659    5.189551   -0.089895
     70          1           0        1.713207    5.156124   -1.640119
     71          1           0        0.798631    5.481266   -0.187225
     72          1           0        3.836551    3.753702   -1.182294
     73          1           0        3.980888    2.000036   -1.764121
     74          1           0        4.550947    1.345094    0.335138
     75          1           0        4.390074    3.093417    0.928592
     76          1           0       -1.329726   -0.099500    2.746173
     77          1           0       -0.062202    0.041647    1.834548
     78          1           0       -1.575316    0.629218   -1.201333
     79          1           0       -0.307792    0.770365   -2.112958
     80          1           0        6.948956    3.996294   -1.049296
     81          1           0        6.694223   -1.633694    2.127173
 ---------------------------------------------------------------------

 SCF Done:  E(UPBE1PBE) =  -3249.11584183     A.U. after   43 cycles

 Alpha virt. eigenvalues --    0.31074   0.31963   0.32194   0.32722   0.32850
 Alpha virt. eigenvalues --    0.33099   0.33398   0.33623   0.33791   0.33884
 Alpha virt. eigenvalues --    0.34135   0.34375   0.34571   0.35138   0.35419

  Beta  occ. eigenvalues -- -256.36773 -30.13307 -25.96170 -25.95933 -25.95591
  Beta  occ. eigenvalues --  -19.26372 -19.26185 -19.25944 -19.23828 -19.19106
  Beta  occ. eigenvalues --  -19.18570 -14.42122 -14.41980 -14.40144 -14.39721
  Beta  occ. eigenvalues --  -10.36041 -10.35626 -10.34669 -10.30594 -10.29426
  Beta  occ. eigenvalues --  -10.29330 -10.28875 -10.28738 -10.28636 -10.28632
  Beta  occ. eigenvalues --  -10.27894 -10.27674 -10.27582 -10.27353 -10.27341
  Beta  occ. eigenvalues --  -10.26978 -10.26131 -10.25696 -10.25627 -10.25386
  Beta  occ. eigenvalues --  -10.25267 -10.24992 -10.24756 -10.24677 -10.24557
  Beta  occ. eigenvalues --  -10.24272 -10.24122 -10.23869 -10.23751 -10.23683
  Beta  occ. eigenvalues --  -10.23530 -10.23072 -10.22589 -10.21936  -3.48896
  Beta  occ. eigenvalues --   -2.25799  -2.24156  -2.23721  -1.19108  -1.18565
  Beta  occ. eigenvalues --   -1.09792  -1.09126  -1.05010  -1.04879  -1.04494
  Beta  occ. eigenvalues --   -1.04261  -1.03670  -1.02289  -0.90291  -0.89102
  Beta  occ. eigenvalues --   -0.87826  -0.86702  -0.86058  -0.85221  -0.84977
  Beta  occ. eigenvalues --   -0.83274  -0.82323  -0.81729  -0.80790  -0.78947
  Beta  occ. eigenvalues --   -0.78262  -0.77028  -0.75832  -0.74736  -0.73454
  Beta  occ. eigenvalues --   -0.71778  -0.70701  -0.70574  -0.69990  -0.68774
  Beta  occ. eigenvalues --   -0.67665  -0.67566  -0.65927  -0.63071  -0.62662
  Beta  occ. eigenvalues --   -0.62267  -0.61303  -0.59988  -0.59424  -0.59200
  Beta  occ. eigenvalues --   -0.58105  -0.56923  -0.56724  -0.55770  -0.54225
  Beta  occ. eigenvalues --   -0.54035  -0.53440  -0.53289  -0.53012  -0.52781
  Beta  occ. eigenvalues --   -0.52159  -0.51316  -0.51074  -0.51039  -0.50856
  Beta  occ. eigenvalues --   -0.50232  -0.49253  -0.48662  -0.48350  -0.48201
  Beta  occ. eigenvalues --   -0.48024  -0.47700  -0.47515  -0.47207  -0.46466
  Beta  occ. eigenvalues --   -0.46287  -0.46049  -0.45481  -0.45049  -0.44798
  Beta  occ. eigenvalues --   -0.44437  -0.44118  -0.43936  -0.43578  -0.43385
  Beta  occ. eigenvalues --   -0.42976  -0.42677  -0.42483  -0.42112  -0.41756
  Beta  occ. eigenvalues --   -0.41187  -0.41050  -0.40900  -0.40525  -0.40373
  Beta  occ. eigenvalues --   -0.39826  -0.39540  -0.39312  -0.39142  -0.38874
  Beta  occ. eigenvalues --   -0.38711  -0.38363  -0.36632  -0.36434  -0.36263
  Beta  occ. eigenvalues --   -0.35256  -0.35203  -0.34363  -0.34198  -0.33787
  Beta  occ. eigenvalues --   -0.33124  -0.32692  -0.31912  -0.31053  -0.29822
  Beta  occ. eigenvalues --   -0.28977  -0.28235  -0.27519  -0.26896  -0.26807
  Beta  occ. eigenvalues --   -0.26057  -0.24887  -0.23637  -0.22712  -0.20806
  Beta virt. eigenvalues --   -0.16190  -0.12698  -0.11471  -0.09124  -0.07946
  Beta virt. eigenvalues --   -0.03932  -0.03329  -0.02427  -0.01591  -0.01501
  Beta virt. eigenvalues --   -0.00946   0.00742   0.01911   0.02598   0.03091

 Mulliken charges and spin densities:
               1          2
     1  C   -0.394864   0.049611
     2  C   -0.485652   0.038935
     3  C   -0.544977  -0.130475
     4  C   -0.466888   0.006993
     5  C    0.256487  -0.010046
     6  C    0.004912  -0.000362
     7  C   -0.133408  -0.003086
     8  C    0.337922  -0.008873
     9  C   -0.412891   0.000357
    10  C   -0.336349   0.000315
    11  C   -0.196087  -0.000083
    12  C    0.301943  -0.000016
    13  O   -0.394279  -0.000003
    14  O   -0.330413  -0.000002
    15  C    0.285454   0.007603
    16  C   -0.075852  -0.039550
    17  C   -0.090465   0.034629
    18  C    0.348924   0.049729
    19  C   -0.371932   0.006464
    20  C    0.053688  -0.071838
    21  C   -0.235752   0.940260
    22  C    0.289861   0.087023
    23  C   -0.149946  -0.265568
    24  C   -0.021017   0.217696
    25  C    0.265360  -0.021229
    26  C   -0.740791  -0.067334
    27  C   -0.048862  -0.545866
    28  C   -0.418215   0.816131
    29  C    0.242031   0.012821
    30  C   -0.086318  -0.012610
    31  C    0.031741   0.015600
    32  C    0.191925  -0.017173
    33  C   -0.438266   0.000743
    34  C   -0.262492  -0.001489
    35  C   -0.194184   0.000519
    36  C    0.258573  -0.000021
    37  O   -0.389763   0.000071
    38  O   -0.343904  -0.000008
    39  N   -0.029252   0.019262
    40  N   -0.011514  -0.061938
    41  N   -0.076033  -0.050858
    42  N   -0.222523   0.004727
    43  Fe  -0.192642   0.005771
    44  O   -0.539305   0.003162
    45  O   -0.446809  -0.020103
    46  H    0.140311  -0.002432
    47  H    0.155189  -0.001652
    48  H    0.154442   0.004883
    49  H    0.136334   0.000930
    50  H    0.146141  -0.000002
    51  H    0.164666  -0.000222
    52  H    0.155063   0.000007
    53  H    0.128000   0.000066
    54  H    0.138887  -0.000084
    55  H    0.138523   0.000005
    56  H    0.119985  -0.000005
    57  H    0.170854  -0.002385
    58  H    0.164794  -0.000076
    59  H    0.152061   0.003297
    60  H    0.198073   0.049865
    61  H    0.230337   0.015995
    62  H    0.215647  -0.022374
    63  H    0.301060  -0.001570
    64  H    0.283055  -0.008485
    65  H    0.292092   0.001844
    66  H    0.150791   0.039144
    67  H    0.182595  -0.035957
    68  H    0.147127  -0.030928
    69  H    0.156712  -0.000354
    70  H    0.169306  -0.000352
    71  H    0.151871  -0.000079
    72  H    0.129092   0.000152
    73  H    0.135628   0.000647
    74  H    0.119186  -0.000051
    75  H    0.149086   0.000054
    76  H    0.371783  -0.001142
    77  H    0.370253  -0.001501
    78  H    0.238938  -0.000876
    79  H    0.370062   0.003743
    80  H    0.395284   0.000005
    81  H    0.389596   0.000001
 Sum of Mulliken charges =   1.00000   1.00000

 Dipole moment (field-independent basis, Debye):
    X=            -18.8652    Y=              1.4227    Z=              0.7005  Tot=             18.9318
 Quadrupole moment (field-independent basis, Debye-Ang):
   XX=           -187.7009   YY=           -188.3464   ZZ=           -256.0390
   XY=             79.1158   XZ=             12.4511   YZ=             -1.1675

 Normal termination of Gaussian 16 at Sun Sep 18 01:05:10 2022.
