 Gaussian 16, Revision A.03,
 Gaussian 16:  ES64L-G16RevA.03 25-Dec-2016

 ----------------------------------------------------------------------
 # PBE1PBE/def2TZVP empiricaldispersion=GD3BJ scf=maxcycle=999 geom=che
 ck pop=nbo
 ----------------------------------------------------------------------

 ---------
 1ebt_II_Q
 ---------
 Structure from the checkpoint file:  "1ebt_II_Q.chk"
 Charge =  0 Multiplicity = 5

                         Standard orientation:
 ---------------------------------------------------------------------
 Center     Atomic      Atomic             Coordinates (Angstroms)
 Number     Number       Type             X           Y           Z
 ---------------------------------------------------------------------
      1          6           0       -1.719666    0.749413    5.201262
      2          6           0       -1.350137    0.172314    3.843435
      3          7           0       -0.851877   -1.119933    3.711738
      4          6           0       -1.381084    0.777315    2.582352
      5          6           0       -0.581578   -1.255669    2.369426
      6          7           0       -0.920673   -0.159083    1.712654
      7          6           0       -0.724808    0.527829   -2.907578
      8          7           0       -0.519451   -0.746314   -2.995834
      9         26           0       -0.761399   -0.020771   -0.426811
     10          6           0        2.526595   -0.621362   -0.204143
     11          6           0       -1.360303   -3.321103   -1.127825
     12          6           0       -4.114177    0.478387   -0.350188
     13          6           0       -0.236191    3.352273   -0.181394
     14          7           0        0.267109   -1.640626   -0.590681
     15          6           0        1.663995   -1.691748   -0.364607
     16          6           0        2.095322   -3.048907   -0.451256
     17          6           0        1.046931   -3.799444   -0.708588
     18          6           0       -0.093615   -2.942664   -0.795155
     19          6           0        1.014553   -5.324401   -0.899695
     20          6           0        3.540073   -3.541708   -0.281667
     21          6           0        3.808155   -4.025997    1.141643
     22          6           0        3.981780   -2.878720    2.107700
     23          8           0        4.972742   -2.127971    1.981128
     24          8           0        3.021938   -2.598352    2.837041
     25          7           0       -2.436523   -1.198209   -0.651697
     26          6           0       -2.426476   -2.479874   -1.069534
     27          6           0       -3.777180   -2.934264   -1.298749
     28          6           0       -4.585381   -1.911841   -1.054954
     29          6           0       -3.734432   -0.789324   -0.695123
     30          6           0       -4.036872   -4.383158   -1.763129
     31          6           0       -6.128625   -1.865494   -1.179118
     32          6           0       -6.771571   -1.035315   -0.379847
     33          7           0       -1.866845    1.550238   -0.256047
     34          6           0       -3.268749    1.581697   -0.273992
     35          6           0       -3.710078    2.939330   -0.210467
     36          6           0       -2.643728    3.719326   -0.183570
     37          6           0       -1.517084    2.881902   -0.196543
     38          6           0       -5.186643    3.396044   -0.220825
     39          6           0       -2.549170    5.272838   -0.085066
     40          6           0       -3.478957    5.965133    0.616926
     41          7           0        0.813976    1.183536   -0.209170
     42          6           0        0.853995    2.525630   -0.176130
     43          6           0        2.261800    2.959880   -0.142712
     44          6           0        3.031456    1.868106   -0.119142
     45          6           0        2.147385    0.706741   -0.218689
     46          6           0        2.642658    4.452183   -0.055309
     47          6           0        4.560365    1.785063   -0.098766
     48          6           0        5.182722    2.134431   -1.480446
     49          6           0        6.692821    2.229888   -1.524340
     50          8           0        7.303734    1.143229   -1.644333
     51          8           0        7.217675    3.371409   -1.364098
     52          1           0       -2.439329    1.530753    5.072840
     53          1           0       -2.136105   -0.021684    5.815174
     54          1           0       -0.843530    1.145164    5.671014
     55          1           0       -1.701149    1.771733    2.350858
     56          1           0       -0.719465   -1.799760    4.433057
     57          1           0       -0.155830   -2.127983    1.919196
     58          1           0       -0.894672    1.581735   -2.834578
     59          1           0        8.204975    1.133202   -1.974884
     60          1           0        4.876681    1.386139   -2.181373
     61          1           0        4.781134    3.074137   -1.797588
     62          1           0        4.935611    2.468517    0.634024
     63          1           0        4.850676    0.791343    0.171681
     64          1           0        3.564033   -0.838763   -0.058000
     65          1           0        2.985695   -4.629897    1.463768
     66          1           0        4.697975   -4.620230    1.144548
     67          1           0        4.210956   -2.739830   -0.509279
     68          1           0        3.715779   -4.347726   -0.963108
     69          1           0        0.393460   -5.565837   -1.736865
     70          1           0        2.007060   -5.682815   -1.076807
     71          1           0        0.620601   -5.786012   -0.018436
     72          1           0       -1.523049   -4.328325   -1.450188
     73          1           0       -4.513331   -4.370675   -2.721112
     74          1           0       -3.106615   -4.907051   -1.834254
     75          1           0       -4.670696   -4.876167   -1.055945
     76          1           0       -6.234367   -0.485359    0.364371
     77          1           0       -7.830100   -0.912131   -0.475988
     78          1           0       -6.650740   -2.479975   -1.882473
     79          1           0       -5.147205    0.635271   -0.119667
     80          1           0       -5.264841    4.338929   -0.720578
     81          1           0       -5.781056    2.669680   -0.734602
     82          1           0       -5.536225    3.495697    0.785536
     83          1           0       -0.078025    4.410487   -0.173305
     84          1           0        1.836384    5.000866    0.384883
     85          1           0        3.519743    4.561711    0.547704
     86          1           0        2.836020    4.829075   -1.037889
     87          1           0       -1.750178    5.792127   -0.571738
     88          1           0       -3.850596    6.895165    0.240329
     89          1           0       -3.841432    5.581703    1.547783
     90          1           0        4.854792   -1.175320    1.969130
 ---------------------------------------------------------------------

 SCF Done:  E(UPBE1PBE) =  -3455.60264052     A.U. after   64 cycles

 Alpha virt. eigenvalues --    0.77839   0.78452   0.78598   0.78770   0.79014
 Alpha virt. eigenvalues --    0.79331   0.79718   0.79933   0.80107   0.80303
 Alpha virt. eigenvalues --    0.80529   0.80844   0.81000   0.81458   0.81990

  Beta  occ. eigenvalues -- -256.33847 -30.06721 -25.90347 -25.89914 -25.89456
  Beta  occ. eigenvalues --  -19.27807 -19.26546 -19.18048 -19.17924 -14.44622
  Beta  occ. eigenvalues --  -14.42671 -14.37888 -14.36626 -14.36390 -14.36324
  Beta  occ. eigenvalues --  -14.35548 -10.35772 -10.35146 -10.29812 -10.27804
  Beta  occ. eigenvalues --  -10.26571 -10.24896 -10.24417 -10.24389 -10.24370
  Beta  occ. eigenvalues --  -10.24044 -10.24017 -10.23956 -10.23792 -10.23751
  Beta  occ. eigenvalues --  -10.23613 -10.23490 -10.23477 -10.23215 -10.23193
  Beta  occ. eigenvalues --  -10.23003 -10.22673 -10.22404 -10.22327 -10.22230
  Beta  occ. eigenvalues --  -10.22225 -10.22000 -10.21620 -10.21602 -10.21509
  Beta  occ. eigenvalues --  -10.21457 -10.21355 -10.21279 -10.21255 -10.21242
  Beta  occ. eigenvalues --  -10.21184 -10.21021 -10.20829 -10.20785 -10.20727
  Beta  occ. eigenvalues --   -3.37524  -2.12650  -2.12187  -2.11934  -1.17729
  Beta  occ. eigenvalues --   -1.17460  -1.04386  -1.03190  -1.02155  -0.98244
  Beta  occ. eigenvalues --   -0.97326  -0.96790  -0.95891  -0.90655  -0.88809
  Beta  occ. eigenvalues --   -0.84603  -0.84039  -0.83371  -0.82397  -0.82131
  Beta  occ. eigenvalues --   -0.81247  -0.81022  -0.79838  -0.79501  -0.79155
  Beta  occ. eigenvalues --   -0.77702  -0.76844  -0.75917  -0.74495  -0.73210
  Beta  occ. eigenvalues --   -0.72139  -0.71720  -0.71345  -0.70554  -0.70315
  Beta  occ. eigenvalues --   -0.69126  -0.66422  -0.66099  -0.65310  -0.65242
  Beta  occ. eigenvalues --   -0.64417  -0.61930  -0.60975  -0.60906  -0.60483
  Beta  occ. eigenvalues --   -0.59317  -0.57959  -0.56029  -0.55674  -0.55452
  Beta  occ. eigenvalues --   -0.55117  -0.53856  -0.53051  -0.52850  -0.52092
  Beta  occ. eigenvalues --   -0.51574  -0.51323  -0.51011  -0.50759  -0.49547
  Beta  occ. eigenvalues --   -0.49448  -0.49102  -0.48607  -0.48359  -0.48040
  Beta  occ. eigenvalues --   -0.47447  -0.46841  -0.46505  -0.46203  -0.45818
  Beta  occ. eigenvalues --   -0.45532  -0.44788  -0.44623  -0.44266  -0.44138
  Beta  occ. eigenvalues --   -0.43869  -0.43671  -0.43470  -0.43146  -0.42782
  Beta  occ. eigenvalues --   -0.42555  -0.42421  -0.42123  -0.41944  -0.41816
  Beta  occ. eigenvalues --   -0.41302  -0.41265  -0.41138  -0.40965  -0.40682
  Beta  occ. eigenvalues --   -0.40394  -0.40144  -0.39728  -0.39585  -0.39214
  Beta  occ. eigenvalues --   -0.39053  -0.38879  -0.38614  -0.38240  -0.37876
  Beta  occ. eigenvalues --   -0.37855  -0.37484  -0.37258  -0.36721  -0.36574
  Beta  occ. eigenvalues --   -0.36045  -0.35244  -0.34639  -0.34354  -0.33880
  Beta  occ. eigenvalues --   -0.33750  -0.33472  -0.33022  -0.32671  -0.32521
  Beta  occ. eigenvalues --   -0.31981  -0.31712  -0.31394  -0.30139  -0.29472
  Beta  occ. eigenvalues --   -0.28580  -0.28163  -0.27846  -0.27652  -0.27052
  Beta  occ. eigenvalues --   -0.25018  -0.24531  -0.23656  -0.23270  -0.22910
  Beta  occ. eigenvalues --   -0.19360  -0.18899  -0.15765
  Beta virt. eigenvalues --   -0.07924  -0.06290  -0.03285  -0.01800  -0.01736
  Beta virt. eigenvalues --   -0.01455  -0.01062  -0.00861  -0.00171   0.00035
  Beta virt. eigenvalues --    0.01764   0.02169   0.02334   0.02851   0.03177

 Mulliken charges and spin densities:
               1          2
     1  C   -0.386153   0.000778
     2  C    0.123011   0.003593
     3  N   -0.222948   0.001745
     4  C   -0.156978   0.001206
     5  C    0.022996   0.008254
     6  N   -0.045945   0.033679
     7  C   -0.072736  -0.078004
     8  N   -0.145381   0.069788
     9  Fe  -0.136401   3.914083
    10  C   -0.441354   0.000610
    11  C   -0.441275  -0.031526
    12  C   -0.351446   0.008307
    13  C   -0.502148  -0.019706
    14  N   -0.060837   0.042238
    15  C    0.269516  -0.027881
    16  C    0.002937   0.021021
    17  C   -0.065720  -0.023738
    18  C    0.241306   0.012806
    19  C   -0.410194   0.003120
    20  C   -0.304630  -0.000211
    21  C   -0.090705   0.000306
    22  C    0.241956   0.000114
    23  O   -0.341010   0.000021
    24  O   -0.362348  -0.000190
    25  N   -0.112410   0.017365
    26  C    0.336937   0.017077
    27  C   -0.105643  -0.018875
    28  C    0.031777   0.024718
    29  C    0.259698  -0.027235
    30  C   -0.377370   0.002241
    31  C   -0.252269  -0.004008
    32  C   -0.236175   0.005918
    33  N   -0.013121   0.054776
    34  C    0.129738  -0.034963
    35  C   -0.001185   0.031762
    36  C   -0.001620  -0.034908
    37  C    0.235893   0.017262
    38  C   -0.387025  -0.000832
    39  C   -0.242139   0.023833
    40  C   -0.290252  -0.028724
    41  N   -0.043972   0.019494
    42  C    0.281409   0.012730
    43  C   -0.071917  -0.024777
    44  C   -0.033509   0.029415
    45  C    0.289492  -0.033104
    46  C   -0.400634   0.002811
    47  C   -0.352463  -0.000906
    48  C   -0.134730   0.000892
    49  C    0.271298   0.000211
    50  O   -0.318598   0.000026
    51  O   -0.389129   0.000106
    52  H    0.142636   0.000001
    53  H    0.124553   0.000092
    54  H    0.144506   0.000126
    55  H    0.150025   0.001067
    56  H    0.241188   0.001398
    57  H    0.176422   0.000777
    58  H    0.235085   0.003688
    59  H    0.345279   0.000011
    60  H    0.123268  -0.000046
    61  H    0.130819  -0.000037
    62  H    0.138094   0.000543
    63  H    0.078526   0.000141
    64  H    0.059028  -0.000389
    65  H    0.108851  -0.000035
    66  H    0.111727   0.000115
    67  H    0.137976   0.000069
    68  H    0.134412   0.000576
    69  H    0.136382  -0.001017
    70  H    0.120252   0.000152
    71  H    0.144071  -0.001361
    72  H    0.074284   0.001726
    73  H    0.134713  -0.000505
    74  H    0.117571  -0.000063
    75  H    0.137574  -0.000628
    76  H    0.135903  -0.000190
    77  H    0.118471  -0.000311
    78  H    0.121465   0.000654
    79  H    0.075164  -0.000728
    80  H    0.145707   0.000707
    81  H    0.137388   0.000075
    82  H    0.131606   0.001061
    83  H    0.095244   0.000855
    84  H    0.131904  -0.000350
    85  H    0.137666  -0.000188
    86  H    0.144333  -0.001294
    87  H    0.124627  -0.002419
    88  H    0.136249   0.001307
    89  H    0.131324   0.001698
    90  H    0.350114   0.000000
 Sum of Mulliken charges =  -0.00000   4.00000

 Dipole moment (field-independent basis, Debye):
    X=              0.2558    Y=             -2.7942    Z=              2.1930  Tot=              3.5612
 Quadrupole moment (field-independent basis, Debye-Ang):
   XX=           -285.0708   YY=           -293.7341   ZZ=           -289.9626
   XY=            -22.6771   XZ=            -12.8087   YZ=              0.6333

 Summary of Natural Population Analysis:

                                       Natural Population
                Natural  -----------------------------------------------
    Atom  No    Charge         Core      Valence    Rydberg      Total
 -----------------------------------------------------------------------
      C    1   -0.32071      0.99970     2.31788    0.00314     3.32071
      C    2    0.06281      0.99963     1.93001    0.00755     2.93719
      N    3   -0.24647      0.99972     2.73769    0.00906     3.74647
      C    4   -0.03887      0.99951     2.02968    0.00969     3.03887
      C    5    0.10227      0.99966     1.88713    0.01094     2.89773
      N    6   -0.17116      0.99972     2.64856    0.02289     3.67116
      C    7    0.00953      0.99968     1.98090    0.00988     2.99047
      N    8   -0.08582      0.99988     2.57494    0.01099     3.58582
     Fe    9    2.14594      8.99410     1.82879    0.03116    10.85406
      C   10   -0.11476      0.99946     2.10688    0.00842     3.11476
      C   11   -0.12128      0.99943     2.11359    0.00826     3.12128
      C   12   -0.10390      0.99947     2.09636    0.00807     3.10390
      C   13   -0.13207      0.99944     2.12444    0.00818     3.13207
      N   14   -0.19297      0.99970     2.67192    0.02135     3.69297
      C   15    0.04967      0.99947     1.93984    0.01101     2.95033
      C   16   -0.00763      0.99931     1.99831    0.01002     3.00763
      C   17   -0.02881      0.99931     2.02052    0.00898     3.02881
      C   18    0.08457      0.99949     1.90464    0.01130     2.91543
      C   19   -0.31554      0.99970     2.31225    0.00359     3.31554
      C   20   -0.20597      0.99966     2.19942    0.00688     3.20597
      C   21   -0.24682      0.99962     2.23868    0.00853     3.24682
      C   22    0.38415      0.99975     1.59748    0.01862     2.61585
      O   23   -0.33562      0.99980     3.32179    0.01403     4.33562
      O   24   -0.29941      0.99989     3.28719    0.01233     4.29941
      N   25   -0.19120      0.99970     2.67149    0.02001     3.69120
      C   26    0.09037      0.99949     1.89925    0.01088     2.90963
      C   27   -0.01039      0.99936     2.00260    0.00843     3.01039
      C   28   -0.03198      0.99930     2.02242    0.01026     3.03198
      C   29    0.06437      0.99951     1.92589    0.01023     2.93563
      C   30   -0.31362      0.99970     2.31037    0.00355     3.31362
      C   31   -0.09669      0.99954     2.08822    0.00893     3.09669
      C   32   -0.18875      0.99958     2.18096    0.00821     3.18875
      N   33   -0.19779      0.99970     2.67711    0.02098     3.69779
      C   34    0.04505      0.99949     1.94479    0.01066     2.95495
      C   35    0.01691      0.99932     1.97480    0.00898     2.98309
      C   36   -0.06959      0.99925     2.05895    0.01139     3.06959
      C   37    0.08000      0.99946     1.90961    0.01093     2.92000
      C   38   -0.31853      0.99970     2.31523    0.00359     3.31853
      C   39   -0.08761      0.99961     2.07850    0.00950     3.08761
      C   40   -0.21444      0.99964     2.20595    0.00885     3.21444
      N   41   -0.19950      0.99969     2.68088    0.01893     3.69950
      C   42    0.09191      0.99953     1.89800    0.01057     2.90809
      C   43   -0.02197      0.99939     2.01413    0.00845     3.02197
      C   44   -0.00968      0.99937     2.00099    0.00933     3.00968
      C   45    0.05739      0.99952     1.93335    0.00974     2.94261
      C   46   -0.31814      0.99970     2.31483    0.00361     3.31814
      C   47   -0.20168      0.99966     2.19564    0.00638     3.20168
      C   48   -0.24564      0.99962     2.23754    0.00848     3.24564
      C   49    0.38040      0.99975     1.60196    0.01789     2.61960
      O   50   -0.32297      0.99981     3.30970    0.01346     4.32297
      O   51   -0.30585      0.99990     3.29437    0.01158     4.30585
      H   52    0.11520      0.00000     0.38429    0.00052     0.38480
      H   53    0.10700      0.00000     0.39230    0.00070     0.39300
      H   54    0.11136      0.00000     0.38789    0.00075     0.38864
      H   55    0.11595      0.00000     0.38324    0.00081     0.38405
      H   56    0.21213      0.00000     0.28702    0.00085     0.28787
      H   57    0.11345      0.00000     0.38553    0.00102     0.38655
      H   58    0.13141      0.00000     0.36648    0.00210     0.36859
      H   59    0.25524      0.00000     0.24329    0.00146     0.24476
      H   60    0.10999      0.00000     0.38926    0.00074     0.39001
      H   61    0.11883      0.00000     0.38052    0.00065     0.38117
      H   62    0.11230      0.00000     0.38679    0.00090     0.38770
      H   63    0.09812      0.00000     0.40075    0.00113     0.40188
      H   64    0.10159      0.00000     0.39703    0.00138     0.39841
      H   65    0.11722      0.00000     0.38213    0.00065     0.38278
      H   66    0.11032      0.00000     0.38895    0.00073     0.38968
      H   67    0.10812      0.00000     0.39104    0.00084     0.39188
      H   68    0.11247      0.00000     0.38676    0.00077     0.38753
      H   69    0.10911      0.00000     0.39016    0.00073     0.39089
      H   70    0.10673      0.00000     0.39253    0.00074     0.39327
      H   71    0.10903      0.00000     0.39017    0.00081     0.39097
      H   72    0.10589      0.00000     0.39263    0.00148     0.39411
      H   73    0.11019      0.00000     0.38903    0.00077     0.38981
      H   74    0.10512      0.00000     0.39430    0.00058     0.39488
      H   75    0.11019      0.00000     0.38905    0.00076     0.38981
      H   76    0.09485      0.00000     0.40432    0.00083     0.40515
      H   77    0.09916      0.00000     0.40015    0.00069     0.40084
      H   78    0.10586      0.00000     0.39328    0.00086     0.39414
      H   79    0.10948      0.00000     0.38924    0.00128     0.39052
      H   80    0.11565      0.00000     0.38361    0.00074     0.38435
      H   81    0.10825      0.00000     0.39102    0.00073     0.39175
      H   82    0.10969      0.00000     0.38958    0.00073     0.39031
      H   83    0.11043      0.00000     0.38825    0.00132     0.38957
      H   84    0.10876      0.00000     0.39059    0.00065     0.39124
      H   85    0.11057      0.00000     0.38864    0.00079     0.38943
      H   86    0.10934      0.00000     0.38983    0.00083     0.39066
      H   87    0.10083      0.00000     0.39817    0.00100     0.39917
      H   88    0.10011      0.00000     0.39904    0.00085     0.39989
      H   89    0.09979      0.00000     0.39921    0.00100     0.40021
      H   90    0.25874      0.00000     0.23994    0.00133     0.24126
 =======================================================================
   * Total *    2.00000     58.97339   128.43241    0.59419   188.00000

 Normal termination of Gaussian 16 at Sat Oct  1 00:52:44 2022.
