 Gaussian 16, Revision A.03,

 ----------------------------------------------------------------------
 # PBE1PBE/def2TZVP empiricaldispersion=GD3BJ int=(grid=ultrafine) geom
 =check pop=nbo
 ----------------------------------------------------------------------

 ---------
 1aw3_II_Q
 ---------
 Structure from the checkpoint file:  "1aw3_II_Q.chk"
 Charge =  0 Multiplicity = 5

 SCF Done:  E(UPBE1PBE) =  -3627.66359372     A.U. after   58 cycles

 Summary of Natural Population Analysis:

                                       Natural Population
                Natural  -----------------------------------------------
    Atom  No    Charge         Core      Valence    Rydberg      Total
 -----------------------------------------------------------------------
      C    1   -0.31874      0.99970     2.31585    0.00318     3.31874
      C    2    0.04797      0.99956     1.94317    0.00930     2.95203
      N    3   -0.24044      0.99968     2.73096    0.00980     3.74044
      C    4   -0.03005      0.99946     2.02140    0.00919     3.03005
      C    5    0.10842      0.99966     1.88059    0.01133     2.89158
      N    6   -0.17487      0.99972     2.65350    0.02165     3.67487
      H    7    0.11546      0.00000     0.38388    0.00066     0.38454
      H    8    0.10546      0.00000     0.39390    0.00064     0.39454
      H    9    0.21002      0.00000     0.28916    0.00082     0.28998
      H   10    0.11707      0.00000     0.38211    0.00082     0.38293
      H   11    0.11408      0.00000     0.38501    0.00092     0.38592
      C   12   -0.31914      0.99970     2.31628    0.00316     3.31914
      C   13    0.04882      0.99954     1.94225    0.00939     2.95118
      N   14   -0.24225      0.99968     2.73302    0.00955     3.74225
      C   15   -0.02965      0.99945     2.02057    0.00964     3.02965
      C   16    0.11119      0.99967     1.87804    0.01110     2.88881
      N   17   -0.17760      0.99973     2.65640    0.02147     3.67760
      H   18    0.10793      0.00000     0.39134    0.00073     0.39207
      H   19    0.11814      0.00000     0.38136    0.00050     0.38186
      H   20    0.21218      0.00000     0.28700    0.00081     0.28782
      H   21    0.11719      0.00000     0.38191    0.00090     0.38281
      H   22    0.11325      0.00000     0.38587    0.00088     0.38675
      C   23   -0.09899      0.99949     2.09173    0.00777     3.09899
      C   24   -0.15741      0.99947     2.14956    0.00838     3.15741
      C   25   -0.09813      0.99948     2.09079    0.00786     3.09813
      C   26   -0.17657      0.99949     2.16883    0.00825     3.17657
      C   27    0.03831      0.99951     1.95137    0.01082     2.96169
      C   28    0.00485      0.99946     1.98676    0.00892     2.99515
      C   29   -0.04336      0.99946     2.03532    0.00857     3.04336
      C   30    0.08849      0.99951     1.90130    0.01070     2.91151
      C   31   -0.32015      0.99971     2.31628    0.00416     3.32015
      C   32   -0.21665      0.99968     2.20923    0.00774     3.21665
      C   33   -0.25528      0.99964     2.24712    0.00852     3.25528
      C   34    0.38742      0.99975     1.59499    0.01783     2.61258
      O   35   -0.28598      0.99989     3.27437    0.01172     4.28598
      O   36   -0.34380      0.99979     3.32919    0.01482     4.34380
      C   37    0.08695      0.99951     1.90350    0.01004     2.91305
      C   38   -0.03306      0.99945     2.02482    0.00879     3.03306
      C   39   -0.02846      0.99944     2.01837    0.01065     3.02846
      C   40    0.04501      0.99950     1.94540    0.01009     2.95499
      C   41   -0.32205      0.99971     2.31847    0.00387     3.32205
      C   42   -0.09692      0.99957     2.08771    0.00964     3.09692
      C   43   -0.20199      0.99956     2.19339    0.00905     3.20199
      C   44    0.03492      0.99950     1.95442    0.01115     2.96508
      C   45    0.02041      0.99946     1.97166    0.00847     2.97959
      C   46   -0.08145      0.99942     2.07163    0.01040     3.08145
      C   47    0.08885      0.99951     1.90093    0.01071     2.91115
      C   48   -0.32552      0.99971     2.31927    0.00654     3.32552
      C   49   -0.09141      0.99960     2.08281    0.00900     3.09141
      C   50   -0.21218      0.99962     2.20432    0.00824     3.21218
      C   51    0.08419      0.99952     1.90598    0.01031     2.91581
      C   52   -0.04589      0.99947     2.03798    0.00844     3.04589
      C   53   -0.00570      0.99946     1.99715    0.00910     3.00570
      C   54    0.04298      0.99952     1.94748    0.01002     2.95702
      C   55   -0.32075      0.99971     2.31696    0.00409     3.32075
      C   56   -0.20925      0.99967     2.20279    0.00678     3.20925
      C   57   -0.25232      0.99965     2.24383    0.00883     3.25232
      C   58    0.38345      0.99974     1.59899    0.01782     2.61655
      O   59   -0.32534      0.99980     3.31042    0.01513     4.32534
      O   60   -0.28955      0.99989     3.27773    0.01193     4.28955
      N   61   -0.18978      0.99971     2.66824    0.02183     3.68978
      N   62   -0.18654      0.99971     2.66717    0.01967     3.68654
      N   63   -0.19396      0.99971     2.67295    0.02131     3.69396
      N   64   -0.19139      0.99970     2.67143    0.02026     3.69139
     Fe   65    2.17692      8.99527     1.79288    0.03493    10.82308
      H   66    0.11317      0.00000     0.38550    0.00133     0.38683
      H   67    0.11069      0.00000     0.38815    0.00117     0.38931
      H   68    0.11370      0.00000     0.38511    0.00119     0.38630
      H   69    0.10350      0.00000     0.39549    0.00101     0.39650
      H   70    0.09921      0.00000     0.39973    0.00106     0.40079
      H   71    0.10569      0.00000     0.39326    0.00105     0.39431
      H   72    0.11108      0.00000     0.38812    0.00080     0.38892
      H   73    0.10807      0.00000     0.39139    0.00054     0.39193
      H   74    0.11005      0.00000     0.38914    0.00081     0.38995
      H   75    0.10655      0.00000     0.39239    0.00106     0.39345
      H   76    0.12157      0.00000     0.37766    0.00077     0.37843
      H   77    0.12007      0.00000     0.37922    0.00071     0.37993
      H   78    0.10940      0.00000     0.38991    0.00069     0.39060
      H   79    0.10586      0.00000     0.39328    0.00086     0.39414
      H   80    0.11858      0.00000     0.38058    0.00084     0.38142
      H   81    0.10843      0.00000     0.39068    0.00089     0.39157
      H   82    0.10229      0.00000     0.39663    0.00108     0.39771
      H   83    0.09731      0.00000     0.40198    0.00071     0.40269
      H   84    0.11100      0.00000     0.38822    0.00078     0.38900
      H   85    0.11779      0.00000     0.38144    0.00077     0.38221
      H   86    0.10895      0.00000     0.39045    0.00060     0.39105
      H   87    0.09885      0.00000     0.40034    0.00081     0.40115
      H   88    0.09984      0.00000     0.39943    0.00073     0.40016
      H   89    0.10727      0.00000     0.39179    0.00094     0.39273
      H   90    0.11119      0.00000     0.38800    0.00081     0.38881
      H   91    0.10846      0.00000     0.39087    0.00067     0.39154
      H   92    0.10300      0.00000     0.39611    0.00089     0.39700
      H   93    0.11474      0.00000     0.38405    0.00120     0.38526
      H   94    0.11867      0.00000     0.38055    0.00078     0.38133
      H   95    0.09653      0.00000     0.40255    0.00092     0.40347
      H   96    0.11651      0.00000     0.38291    0.00058     0.38349
      H   97    0.11100      0.00000     0.38825    0.00075     0.38900
      H   98    0.25990      0.00000     0.23891    0.00119     0.24010
      H   99    0.25373      0.00000     0.24515    0.00111     0.24627
 =======================================================================
   * Total *    2.00000     62.97398   139.37633    0.64970   203.00000

 Normal termination of Gaussian 16 at Thu Oct 13 23:22:26 2022.
 Gaussian 16:  ES64L-G16RevA.03 25-Dec-2016

 ----------------------------------------------------------------------
 # PBE1PBE/def2TZVP empiricaldispersion=GD3BJ int=(grid=ultrafine) geom
 =check guess=read scrf=(smd,solvent=Chloroform)
 ----------------------------------------------------------------------

 --------------
 1aw3_II_Q_solv
 --------------
 Structure from the checkpoint file:  "1aw3_II_Q.chk"
 Charge =  0 Multiplicity = 5

                         Standard orientation:
 ---------------------------------------------------------------------
 Center     Atomic      Atomic             Coordinates (Angstroms)
 Number     Number       Type             X           Y           Z
 ---------------------------------------------------------------------
      1          6           0       -1.448354   -0.350397    5.649956
      2          6           0       -1.144289    0.176523    4.266920
      3          7           0       -0.956512    1.501253    3.965085
      4          6           0       -1.137778   -0.513185    3.081597
      5          6           0       -0.831320    1.603380    2.635455
      6          7           0       -0.954038    0.406028    2.042885
      7          1           0       -2.489932   -0.671197    5.672718
      8          1           0       -1.347314    0.481330    6.348445
      9          1           0       -0.959955    2.268689    4.625628
     10          1           0       -1.276016   -1.572094    2.959344
     11          1           0       -0.678031    2.538497    2.129280
     12          6           0       -0.457650   -2.085126   -5.006037
     13          6           0       -0.591051   -1.061441   -3.914261
     14          7           0       -0.891683    0.270313   -4.074272
     15          6           0       -0.526728   -1.324142   -2.572976
     16          6           0       -0.997935    0.791707   -2.836815
     17          7           0       -0.797563   -0.143860   -1.882478
     18          1           0       -1.255004   -1.940027   -5.729486
     19          1           0       -0.626189   -3.055884   -4.549542
     20          1           0       -1.052220    0.757896   -4.954285
     21          1           0       -0.321523   -2.284268   -2.129273
     22          1           0       -1.233793    1.828865   -2.667678
     23          6           0        2.513870   -0.429899    0.336577
     24          6           0       -1.384615   -3.400408    0.690272
     25          6           0       -4.296082    0.417483   -0.310159
     26          6           0       -0.405069    3.449967   -0.371803
     27          6           0        1.690452   -1.552756    0.432604
     28          6           0        2.189966   -2.901690    0.539583
     29          6           0        1.109689   -3.736413    0.712793
     30          6           0       -0.078477   -2.918785    0.607595
     31          6           0        1.186944   -5.230011    0.939850
     32          6           0        3.636446   -3.320494    0.415533
     33          6           0        4.245824   -2.954350   -0.941429
     34          6           0        5.647440   -3.512458   -1.143233
     35          8           0        5.982325   -4.500751   -0.454939
     36          8           0        6.357705   -2.945926   -2.000551
     37          6           0       -2.495274   -2.590365    0.492851
     38          6           0       -3.858112   -3.067615    0.539292
     39          6           0       -4.641538   -1.992955    0.203292
     40          6           0       -3.811326   -0.837148    0.017793
     41          6           0       -4.321228   -4.460794    0.890695
     42          6           0       -6.150339   -1.971430    0.139603
     43          6           0       -6.824352   -2.939161   -0.500811
     44          6           0       -3.487893    1.547135   -0.401957
     45          6           0       -3.966107    2.853530   -0.774851
     46          6           0       -2.898168    3.705621   -0.658143
     47          6           0       -1.709599    2.939389   -0.390043
     48          6           0       -5.342455    3.200724   -1.268738
     49          6           0       -2.920252    5.180519   -0.989404
     50          6           0       -3.946258    5.979166   -0.620114
     51          6           0        0.729977    2.646621   -0.191424
     52          6           0        2.096273    3.120484   -0.214294
     53          6           0        2.918178    2.037344    0.025620
     54          6           0        2.060522    0.876967    0.145165
     55          6           0        2.542403    4.535569   -0.497012
     56          6           0        4.438856    2.017453    0.004137
     57          6           0        5.155057    3.116043    0.800481
     58          6           0        6.663260    2.970472    0.663110
     59          8           0        7.258594    2.330543    1.555185
     60          8           0        7.188670    3.493825   -0.342698
     61          7           0        0.334591   -1.620636    0.412115
     62          7           0       -2.526151   -1.238501    0.215500
     63          7           0       -2.130761    1.643944   -0.216703
     64          7           0        0.776496    1.298837    0.011331
     65         26           0       -0.886986    0.030323    0.104848
     66          1           0       -1.555452   -4.448533    0.867429
     67          1           0       -5.353677    0.500726   -0.494311
     68          1           0       -0.276000    4.509201   -0.523800
     69          1           0       -6.670363   -1.056123    0.347517
     70          1           0       -2.065806    5.619291   -1.475511
     71          1           0        3.568470   -0.595922    0.451871
     72          1           0        1.844057   -5.435048    1.784212
     73          1           0        0.216757   -5.672174    1.155525
     74          1           0        1.599021   -5.708158    0.051382
     75          1           0        4.228779   -2.853302    1.195150
     76          1           0        3.712238   -4.400332    0.543420
     77          1           0        3.594959   -3.354201   -1.702358
     78          1           0        4.297157   -1.879608   -1.091840
     79          1           0       -3.792294   -4.819970    1.771722
     80          1           0       -5.384883   -4.460124    1.120038
     81          1           0       -4.137938   -5.127505    0.050148
     82          1           0       -6.284974   -3.395400   -1.304641
     83          1           0       -7.903426   -2.914609   -0.535136
     84          1           0       -5.966327    3.523788   -0.434653
     85          1           0       -5.244437    4.000263   -2.002065
     86          1           0       -5.800671    2.347269   -1.762029
     87          1           0       -4.730243    5.601300    0.018583
     88          1           0       -3.864668    7.046754   -0.759785
     89          1           0        2.765161    5.039916    0.443610
     90          1           0        3.429633    4.516965   -1.130488
     91          1           0        1.778970    5.100424   -1.025919
     92          1           0        4.814055    1.093549    0.437183
     93          1           0        4.767252    2.031736   -1.036160
     94          1           0        4.896491    4.110461    0.453326
     95          1           0        4.889749    3.036667    1.851909
     96          1           0       -0.793793   -1.158627    5.901383
     97          1           0        0.499954   -2.007654   -5.477092
     98          1           0        7.020348   -2.306755   -1.728586
     99          1           0        7.007068    2.441919    2.474930
 ---------------------------------------------------------------------

 SCF Done:  E(UPBE1PBE) =  -3627.73884090     A.U. after   94 cycles

 Alpha virt. eigenvalues --    1.14323   1.14643   1.15284   1.15427   1.15790
 Alpha virt. eigenvalues --    1.15936   1.16627   1.16746   1.17101   1.17661
 Alpha virt. eigenvalues --    1.17789   1.17931   1.18329   1.18854   1.19187

  Beta  occ. eigenvalues -- -256.33195 -30.05950 -25.89688 -25.88913 -25.88865
  Beta  occ. eigenvalues --  -19.26534 -19.24927 -19.18550 -19.18355 -14.44178
  Beta  occ. eigenvalues --  -14.43955 -14.38098 -14.37883 -14.35484 -14.35277
  Beta  occ. eigenvalues --  -14.35241 -14.35008 -10.35432 -10.35370 -10.27841
  Beta  occ. eigenvalues --  -10.27391 -10.25386 -10.25324 -10.24599 -10.24310
  Beta  occ. eigenvalues --  -10.24237 -10.24195 -10.23988 -10.23911 -10.23697
  Beta  occ. eigenvalues --  -10.23650 -10.22922 -10.22839 -10.22825 -10.22758
  Beta  occ. eigenvalues --  -10.22572 -10.22348 -10.21978 -10.21977 -10.21850
  Beta  occ. eigenvalues --  -10.21827 -10.21822 -10.21760 -10.21663 -10.21660
  Beta  occ. eigenvalues --  -10.21553 -10.21542 -10.21531 -10.21486 -10.21440
  Beta  occ. eigenvalues --  -10.21318 -10.21308 -10.21104 -10.20952 -10.20772
  Beta  occ. eigenvalues --  -10.20640 -10.20591 -10.20571 -10.20444  -3.36495
  Beta  occ. eigenvalues --   -2.11326  -2.11116  -2.11032  -1.16967  -1.16121
  Beta  occ. eigenvalues --   -1.04626  -1.04399  -1.03428  -1.03150  -0.97197
  Beta  occ. eigenvalues --   -0.96350  -0.96273  -0.95403  -0.89779  -0.89653
  Beta  occ. eigenvalues --   -0.83213  -0.82527  -0.82135  -0.81790  -0.81615
  Beta  occ. eigenvalues --   -0.80538  -0.80334  -0.79763  -0.79607  -0.78069
  Beta  occ. eigenvalues --   -0.77501  -0.76693  -0.76087  -0.75132  -0.73296
  Beta  occ. eigenvalues --   -0.71653  -0.71039  -0.70833  -0.70653  -0.70158
  Beta  occ. eigenvalues --   -0.69015  -0.68921  -0.68419  -0.66007  -0.65486
  Beta  occ. eigenvalues --   -0.64869  -0.63836  -0.63500  -0.63401  -0.61078
  Beta  occ. eigenvalues --   -0.61055  -0.60327  -0.59611  -0.58464  -0.58003
  Beta  occ. eigenvalues --   -0.55269  -0.54998  -0.54801  -0.54017  -0.53791
  Beta  occ. eigenvalues --   -0.53189  -0.52547  -0.52464  -0.51785  -0.51241
  Beta  occ. eigenvalues --   -0.51053  -0.49896  -0.49676  -0.49315  -0.49002
  Beta  occ. eigenvalues --   -0.48701  -0.48100  -0.47379  -0.47053  -0.46722
  Beta  occ. eigenvalues --   -0.46681  -0.46458  -0.45760  -0.45478  -0.45160
  Beta  occ. eigenvalues --   -0.44712  -0.44565  -0.43831  -0.43640  -0.43586
  Beta  occ. eigenvalues --   -0.43213  -0.43115  -0.43021  -0.42610  -0.42481
  Beta  occ. eigenvalues --   -0.42348  -0.42053  -0.41901  -0.41843  -0.41614
  Beta  occ. eigenvalues --   -0.41549  -0.41395  -0.41018  -0.40717  -0.40526
  Beta  occ. eigenvalues --   -0.40241  -0.40024  -0.39864  -0.39706  -0.39616
  Beta  occ. eigenvalues --   -0.39242  -0.39121  -0.38909  -0.38551  -0.38284
  Beta  occ. eigenvalues --   -0.37885  -0.37669  -0.37346  -0.36803  -0.36569
  Beta  occ. eigenvalues --   -0.36531  -0.36366  -0.35965  -0.34959  -0.34634
  Beta  occ. eigenvalues --   -0.34347  -0.34189  -0.33869  -0.33347  -0.33062
  Beta  occ. eigenvalues --   -0.32670  -0.32510  -0.31991  -0.31382  -0.30942
  Beta  occ. eigenvalues --   -0.30349  -0.29410  -0.29006  -0.28435  -0.28249
  Beta  occ. eigenvalues --   -0.28014  -0.27747  -0.27388  -0.26974  -0.23843
  Beta  occ. eigenvalues --   -0.23338  -0.23127  -0.22818  -0.22193  -0.21922
  Beta  occ. eigenvalues --   -0.19195  -0.19090  -0.13354
  Beta virt. eigenvalues --   -0.07769  -0.06299  -0.02584  -0.01376  -0.00806
  Beta virt. eigenvalues --   -0.00218   0.00078   0.00243   0.01157   0.02256
  Beta virt. eigenvalues --    0.02873   0.03709   0.03971   0.04135   0.04907

 Mulliken charges and spin densities:
               1          2
     1  C   -0.394439   0.000911
     2  C    0.118376   0.002715
     3  N   -0.203888   0.003012
     4  C   -0.228152   0.001747
     5  C   -0.008608   0.006380
     6  N    0.081116   0.019467
     7  H    0.156812   0.000012
     8  H    0.139745  -0.000009
     9  H    0.281793   0.001719
    10  H    0.176004   0.001206
    11  H    0.200511   0.000990
    12  C   -0.411146   0.000751
    13  C    0.141227   0.001601
    14  N   -0.204854   0.003907
    15  C   -0.231688   0.003355
    16  C   -0.001919   0.015548
    17  N    0.051236   0.015308
    18  H    0.143504   0.000008
    19  H    0.160019   0.000036
    20  H    0.288213   0.001624
    21  H    0.171404   0.000915
    22  H    0.190943   0.000242
    23  C   -0.537622   0.003383
    24  C   -0.653373  -0.063450
    25  C   -0.538122   0.003274
    26  C   -0.645009  -0.072242
    27  C    0.221996  -0.041512
    28  C   -0.046597   0.029495
    29  C   -0.018655  -0.032290
    30  C    0.278119   0.016970
    31  C   -0.470474   0.002580
    32  C   -0.299500  -0.000906
    33  C   -0.249506   0.000561
    34  C    0.317185   0.000274
    35  O   -0.387136  -0.000068
    36  O   -0.370521   0.000031
    37  C    0.229827   0.007468
    38  C   -0.104754  -0.038779
    39  C    0.030077   0.025616
    40  C    0.246053  -0.043984
    41  C   -0.416731   0.003893
    42  C   -0.274414  -0.005075
    43  C   -0.330825   0.006302
    44  C    0.257392  -0.040143
    45  C   -0.141636   0.037190
    46  C    0.100146  -0.037431
    47  C    0.133893   0.018612
    48  C   -0.428635  -0.001234
    49  C   -0.284879   0.013737
    50  C   -0.315002  -0.017152
    51  C    0.271075   0.003586
    52  C   -0.064857  -0.037044
    53  C   -0.041897   0.023065
    54  C    0.274609  -0.047772
    55  C   -0.467033   0.004535
    56  C   -0.361343   0.000483
    57  C   -0.238135   0.000494
    58  C    0.338239   0.000138
    59  O   -0.330517  -0.000000
    60  O   -0.417497   0.000112
    61  N   -0.106876   0.050092
    62  N   -0.100926   0.042471
    63  N   -0.085149   0.045242
    64  N   -0.112532   0.046757
    65  Fe   0.034777   4.011514
    66  H    0.149070   0.002702
    67  H    0.148405  -0.000671
    68  H    0.140084   0.003441
    69  H    0.148047   0.000471
    70  H    0.142139  -0.001711
    71  H    0.160066  -0.000763
    72  H    0.155510  -0.000675
    73  H    0.145380   0.000037
    74  H    0.152347  -0.001036
    75  H    0.123616   0.000370
    76  H    0.139896   0.000325
    77  H    0.150046  -0.000028
    78  H    0.130742   0.000057
    79  H    0.143243  -0.001012
    80  H    0.157901   0.000230
    81  H    0.146442  -0.002546
    82  H    0.159630  -0.000254
    83  H    0.147332  -0.000058
    84  H    0.152634   0.001570
    85  H    0.160559   0.000835
    86  H    0.145669   0.000017
    87  H    0.156986   0.000625
    88  H    0.151201   0.000993
    89  H    0.157781  -0.002226
    90  H    0.161171  -0.000711
    91  H    0.145979  -0.000599
    92  H    0.118409   0.000059
    93  H    0.140350   0.000265
    94  H    0.127531  -0.000029
    95  H    0.132349  -0.000032
    96  H    0.159988   0.000028
    97  H    0.154144   0.000058
    98  H    0.393729   0.000024
    99  H    0.392177   0.000000
 Sum of Mulliken charges =  -0.00000   4.00000

 Dipole moment (field-independent basis, Debye):
    X=             -3.0330    Y=              4.6541    Z=              2.2792  Tot=              6.0046
 Quadrupole moment (field-independent basis, Debye-Ang):
   XX=           -365.0949   YY=           -340.7297   ZZ=           -253.7367
   XY=              6.0537   XZ=             23.7488   YZ=             21.1412

 Normal termination of Gaussian 16 at Sun Oct 16 00:36:43 2022.
