 Gaussian 16, Revision A.03,

 ----------------------------------------------------------------------
 # PBE1PBE/def2TZVP empiricaldispersion=GD3BJ int=(grid=ultrafine) geom
 =check guess=read pop=nbo
 ----------------------------------------------------------------------

 -------------
 1aw3_II_S_nbo
 -------------
 Structure from the checkpoint file:  "1aw3_II_S.chk"
 Charge =  0 Multiplicity = 1

 SCF Done:  E(RPBE1PBE) =  -3627.67988195     A.U. after    1 cycles

 Summary of Natural Population Analysis:

                                       Natural Population
                Natural  -----------------------------------------------
    Atom  No    Charge         Core      Valence    Rydberg      Total
 -----------------------------------------------------------------------
      C    1   -0.63757      1.99941     4.63168    0.00648     6.63757
      C    2    0.09066      1.99912     3.89091    0.01931     5.90934
      N    3   -0.49129      1.99936     5.47152    0.02042     7.49129
      C    4   -0.07255      1.99893     4.05558    0.01804     6.07255
      C    5    0.18595      1.99936     3.79544    0.01925     5.81405
      N    6   -0.32704      1.99939     5.27803    0.04962     7.32704
      H    7    0.22986      0.00000     0.76881    0.00133     0.77014
      H    8    0.21053      0.00000     0.78816    0.00131     0.78947
      H    9    0.41832      0.00000     0.57992    0.00176     0.58168
      H   10    0.23149      0.00000     0.76707    0.00144     0.76851
      H   11    0.22516      0.00000     0.77295    0.00189     0.77484
      C   12   -0.63829      1.99940     4.63264    0.00624     6.63829
      C   13    0.09298      1.99909     3.88873    0.01920     5.90702
      N   14   -0.49538      1.99936     5.47603    0.02000     7.49538
      C   15   -0.07141      1.99892     4.05338    0.01910     6.07141
      C   16    0.18840      1.99938     3.79308    0.01915     5.81160
      N   17   -0.33564      1.99941     5.28660    0.04963     7.33564
      H   18    0.21529      0.00000     0.78325    0.00145     0.78471
      H   19    0.23549      0.00000     0.76351    0.00100     0.76451
      H   20    0.42270      0.00000     0.57559    0.00172     0.57730
      H   21    0.23187      0.00000     0.76655    0.00158     0.76813
      H   22    0.22328      0.00000     0.77479    0.00193     0.77672
      C   23   -0.23262      1.99899     4.21742    0.01620     6.23262
      C   24   -0.24222      1.99896     4.22736    0.01590     6.24222
      C   25   -0.22922      1.99896     4.21408    0.01618     6.22922
      C   26   -0.26867      1.99898     4.25352    0.01617     6.26867
      C   27    0.15080      1.99903     3.82971    0.02046     5.84920
      C   28   -0.04035      1.99893     4.02314    0.01827     6.04035
      C   29   -0.03239      1.99893     4.01671    0.01675     6.03239
      C   30    0.13813      1.99903     3.84168    0.02115     5.86187
      C   31   -0.64392      1.99942     4.63632    0.00818     6.64392
      C   32   -0.43084      1.99936     4.41601    0.01548     6.43084
      C   33   -0.51210      1.99927     4.49582    0.01700     6.51210
      C   34    0.77481      1.99951     3.19000    0.03569     5.22519
      O   35   -0.57199      1.99978     6.54875    0.02346     8.57199
      O   36   -0.68761      1.99958     6.65839    0.02965     8.68761
      C   37    0.13488      1.99903     3.84554    0.02056     5.86512
      C   38   -0.00746      1.99891     3.99088    0.01767     6.00746
      C   39   -0.09712      1.99889     4.07669    0.02154     6.09712
      C   40    0.15666      1.99903     3.82359    0.02073     5.84334
      C   41   -0.64858      1.99941     4.64148    0.00769     6.64858
      C   42   -0.18561      1.99914     4.16724    0.01924     6.18561
      C   43   -0.41809      1.99912     4.40065    0.01833     6.41809
      C   44    0.14321      1.99903     3.83667    0.02110     5.85679
      C   45   -0.01154      1.99892     3.99551    0.01712     6.01154
      C   46   -0.10626      1.99885     4.08666    0.02075     6.10626
      C   47    0.13878      1.99904     3.84101    0.02117     5.86122
      C   48   -0.64858      1.99942     4.63610    0.01306     6.64858
      C   49   -0.19650      1.99920     4.17928    0.01801     6.19650
      C   50   -0.39980      1.99924     4.38439    0.01617     6.39980
      C   51    0.13758      1.99905     3.84182    0.02154     5.86242
      C   52   -0.03406      1.99895     4.01821    0.01691     6.03406
      C   53   -0.04720      1.99892     4.02992    0.01836     6.04720
      C   54    0.15314      1.99905     3.82707    0.02074     5.84686
      C   55   -0.64592      1.99942     4.63843    0.00807     6.64592
      C   56   -0.41747      1.99934     4.40457    0.01356     6.41747
      C   57   -0.50489      1.99930     4.48790    0.01768     6.50489
      C   58    0.76674      1.99948     3.19815    0.03563     5.23326
      O   59   -0.65054      1.99959     6.62068    0.03027     8.65054
      O   60   -0.57901      1.99978     6.55535    0.02387     8.57901
      N   61   -0.38545      1.99935     5.34204    0.04406     7.38545
      N   62   -0.36548      1.99935     5.32227    0.04386     7.36548
      N   63   -0.38440      1.99935     5.34094    0.04412     7.38440
      N   64   -0.37920      1.99933     5.33435    0.04552     7.37920
     Fe   65    0.16702     17.99093     7.79554    0.04651    25.83298
      H   66    0.22354      0.00000     0.77377    0.00269     0.77646
      H   67    0.22140      0.00000     0.77622    0.00238     0.77860
      H   68    0.22433      0.00000     0.77326    0.00241     0.77567
      H   69    0.20554      0.00000     0.79239    0.00207     0.79446
      H   70    0.20046      0.00000     0.79757    0.00197     0.79954
      H   71    0.21128      0.00000     0.78660    0.00212     0.78872
      H   72    0.22426      0.00000     0.77418    0.00156     0.77574
      H   73    0.21609      0.00000     0.78283    0.00109     0.78391
      H   74    0.22265      0.00000     0.77577    0.00158     0.77735
      H   75    0.21140      0.00000     0.78644    0.00217     0.78860
      H   76    0.24277      0.00000     0.75567    0.00156     0.75723
      H   77    0.24043      0.00000     0.75815    0.00142     0.75957
      H   78    0.21860      0.00000     0.78002    0.00139     0.78140
      H   79    0.21340      0.00000     0.78495    0.00164     0.78660
      H   80    0.23822      0.00000     0.76008    0.00170     0.76178
      H   81    0.22062      0.00000     0.77775    0.00163     0.77938
      H   82    0.20511      0.00000     0.79271    0.00218     0.79489
      H   83    0.19495      0.00000     0.80362    0.00143     0.80505
      H   84    0.21955      0.00000     0.77882    0.00163     0.78045
      H   85    0.23455      0.00000     0.76389    0.00156     0.76545
      H   86    0.21769      0.00000     0.78111    0.00120     0.78231
      H   87    0.19770      0.00000     0.80069    0.00161     0.80230
      H   88    0.19948      0.00000     0.79908    0.00144     0.80052
      H   89    0.21856      0.00000     0.77967    0.00177     0.78144
      H   90    0.22451      0.00000     0.77390    0.00160     0.77549
      H   91    0.21773      0.00000     0.78098    0.00129     0.78227
      H   92    0.20607      0.00000     0.79213    0.00179     0.79393
      H   93    0.22871      0.00000     0.76882    0.00247     0.77129
      H   94    0.23702      0.00000     0.76142    0.00156     0.76298
      H   95    0.19342      0.00000     0.80475    0.00183     0.80658
      H   96    0.23206      0.00000     0.76676    0.00117     0.76794
      H   97    0.22114      0.00000     0.77737    0.00149     0.77886
      H   98    0.51974      0.00000     0.47787    0.00239     0.48026
      H   99    0.50757      0.00000     0.49021    0.00222     0.49243
 =======================================================================
   * Total *   -0.00000    125.94826   282.75550    1.29624   410.00000

 Normal termination of Gaussian 16 at Wed Oct 12 14:28:42 2022.
 Gaussian 16:  ES64L-G16RevA.03 25-Dec-2016

 ----------------------------------------------------------------------
 # PBE1PBE/def2TZVP empiricaldispersion=GD3BJ int=(grid=ultrafine) geom
 =check guess=read scrf=(smd,solvent=Chloroform)
 ----------------------------------------------------------------------

 --------------
 1aw3_II_S_solv
 --------------
 Structure from the checkpoint file:  "1aw3_II_S.chk"
 Charge =  0 Multiplicity = 1

                         Standard orientation:
 ---------------------------------------------------------------------
 Center     Atomic      Atomic             Coordinates (Angstroms)
 Number     Number       Type             X           Y           Z
 ---------------------------------------------------------------------
      1          6           0       -1.448354   -0.350397    5.649956
      2          6           0       -1.144289    0.176523    4.266920
      3          7           0       -0.956512    1.501253    3.965085
      4          6           0       -1.137778   -0.513185    3.081597
      5          6           0       -0.831320    1.603380    2.635455
      6          7           0       -0.954038    0.406028    2.042885
      7          1           0       -2.489932   -0.671197    5.672718
      8          1           0       -1.347314    0.481330    6.348445
      9          1           0       -0.959955    2.268689    4.625628
     10          1           0       -1.276016   -1.572094    2.959344
     11          1           0       -0.678031    2.538497    2.129280
     12          6           0       -0.457650   -2.085126   -5.006037
     13          6           0       -0.591051   -1.061441   -3.914261
     14          7           0       -0.891683    0.270313   -4.074272
     15          6           0       -0.526728   -1.324142   -2.572976
     16          6           0       -0.997935    0.791707   -2.836815
     17          7           0       -0.797563   -0.143860   -1.882478
     18          1           0       -1.255004   -1.940027   -5.729486
     19          1           0       -0.626189   -3.055884   -4.549542
     20          1           0       -1.052220    0.757896   -4.954285
     21          1           0       -0.321523   -2.284268   -2.129273
     22          1           0       -1.233793    1.828865   -2.667678
     23          6           0        2.513870   -0.429899    0.336577
     24          6           0       -1.384615   -3.400408    0.690272
     25          6           0       -4.296082    0.417483   -0.310159
     26          6           0       -0.405069    3.449967   -0.371803
     27          6           0        1.690452   -1.552756    0.432604
     28          6           0        2.189966   -2.901690    0.539583
     29          6           0        1.109689   -3.736413    0.712793
     30          6           0       -0.078477   -2.918785    0.607595
     31          6           0        1.186944   -5.230011    0.939850
     32          6           0        3.636446   -3.320494    0.415533
     33          6           0        4.245824   -2.954350   -0.941429
     34          6           0        5.647440   -3.512458   -1.143233
     35          8           0        5.982325   -4.500751   -0.454939
     36          8           0        6.357705   -2.945926   -2.000551
     37          6           0       -2.495274   -2.590365    0.492851
     38          6           0       -3.858112   -3.067615    0.539292
     39          6           0       -4.641538   -1.992955    0.203292
     40          6           0       -3.811326   -0.837148    0.017793
     41          6           0       -4.321228   -4.460794    0.890695
     42          6           0       -6.150339   -1.971430    0.139603
     43          6           0       -6.824352   -2.939161   -0.500811
     44          6           0       -3.487893    1.547135   -0.401957
     45          6           0       -3.966107    2.853530   -0.774851
     46          6           0       -2.898168    3.705621   -0.658143
     47          6           0       -1.709599    2.939389   -0.390043
     48          6           0       -5.342455    3.200724   -1.268738
     49          6           0       -2.920252    5.180519   -0.989404
     50          6           0       -3.946258    5.979166   -0.620114
     51          6           0        0.729977    2.646621   -0.191424
     52          6           0        2.096273    3.120484   -0.214294
     53          6           0        2.918178    2.037344    0.025620
     54          6           0        2.060522    0.876967    0.145165
     55          6           0        2.542403    4.535569   -0.497012
     56          6           0        4.438856    2.017453    0.004137
     57          6           0        5.155057    3.116043    0.800481
     58          6           0        6.663260    2.970472    0.663110
     59          8           0        7.258594    2.330543    1.555185
     60          8           0        7.188670    3.493825   -0.342698
     61          7           0        0.334591   -1.620636    0.412115
     62          7           0       -2.526151   -1.238501    0.215500
     63          7           0       -2.130761    1.643944   -0.216703
     64          7           0        0.776496    1.298837    0.011331
     65         26           0       -0.886986    0.030323    0.104848
     66          1           0       -1.555452   -4.448533    0.867429
     67          1           0       -5.353677    0.500726   -0.494311
     68          1           0       -0.276000    4.509201   -0.523800
     69          1           0       -6.670363   -1.056123    0.347517
     70          1           0       -2.065806    5.619291   -1.475511
     71          1           0        3.568470   -0.595922    0.451871
     72          1           0        1.844057   -5.435048    1.784212
     73          1           0        0.216757   -5.672174    1.155525
     74          1           0        1.599021   -5.708158    0.051382
     75          1           0        4.228779   -2.853302    1.195150
     76          1           0        3.712238   -4.400332    0.543420
     77          1           0        3.594959   -3.354201   -1.702358
     78          1           0        4.297157   -1.879608   -1.091840
     79          1           0       -3.792294   -4.819970    1.771722
     80          1           0       -5.384883   -4.460124    1.120038
     81          1           0       -4.137938   -5.127505    0.050148
     82          1           0       -6.284974   -3.395400   -1.304641
     83          1           0       -7.903426   -2.914609   -0.535136
     84          1           0       -5.966327    3.523788   -0.434653
     85          1           0       -5.244437    4.000263   -2.002065
     86          1           0       -5.800671    2.347269   -1.762029
     87          1           0       -4.730243    5.601300    0.018583
     88          1           0       -3.864668    7.046754   -0.759785
     89          1           0        2.765161    5.039916    0.443610
     90          1           0        3.429633    4.516965   -1.130488
     91          1           0        1.778970    5.100424   -1.025919
     92          1           0        4.814055    1.093549    0.437183
     93          1           0        4.767252    2.031736   -1.036160
     94          1           0        4.896491    4.110461    0.453326
     95          1           0        4.889749    3.036667    1.851909
     96          1           0       -0.793793   -1.158627    5.901383
     97          1           0        0.499954   -2.007654   -5.477092
     98          1           0        7.020348   -2.306755   -1.728586
     99          1           0        7.007068    2.441919    2.474930
 ---------------------------------------------------------------------

 SCF Done:  E(RPBE1PBE) =  -3627.75500087     A.U. after   14 cycles

 The electronic state is 1-A.
 Alpha  occ. eigenvalues -- -256.30063 -30.06880 -25.89628 -25.89380 -25.89344
 Alpha  occ. eigenvalues --  -19.26560 -19.24933 -19.18559 -19.18387 -14.43797
 Alpha  occ. eigenvalues --  -14.43630 -14.38828 -14.38700 -14.36516 -14.36463
 Alpha  occ. eigenvalues --  -14.36217 -14.36096 -10.35467 -10.35377 -10.27327
 Alpha  occ. eigenvalues --  -10.26922 -10.25170 -10.25078 -10.24582 -10.24360
 Alpha  occ. eigenvalues --  -10.24249 -10.24239 -10.24231 -10.24192 -10.23904
 Alpha  occ. eigenvalues --  -10.23903 -10.23047 -10.22844 -10.22604 -10.22558
 Alpha  occ. eigenvalues --  -10.22552 -10.22424 -10.22401 -10.22084 -10.22000
 Alpha  occ. eigenvalues --  -10.21982 -10.21941 -10.21918 -10.21870 -10.21782
 Alpha  occ. eigenvalues --  -10.21745 -10.21741 -10.21688 -10.21509 -10.21481
 Alpha  occ. eigenvalues --  -10.21459 -10.21399 -10.21217 -10.20950 -10.20911
 Alpha  occ. eigenvalues --  -10.20680 -10.20674 -10.20587 -10.20559  -3.41367
 Alpha  occ. eigenvalues --   -2.17190  -2.16716  -2.16661  -1.16995  -1.16128
 Alpha  occ. eigenvalues --   -1.04407  -1.04141  -1.03459  -1.03158  -0.97372
 Alpha  occ. eigenvalues --   -0.96565  -0.96459  -0.95620  -0.89573  -0.89450
 Alpha  occ. eigenvalues --   -0.83295  -0.82622  -0.82189  -0.81873  -0.81702
 Alpha  occ. eigenvalues --   -0.80637  -0.80454  -0.79563  -0.79428  -0.78158
 Alpha  occ. eigenvalues --   -0.77579  -0.76771  -0.76174  -0.75286  -0.73394
 Alpha  occ. eigenvalues --   -0.71727  -0.71103  -0.70683  -0.70491  -0.70211
 Alpha  occ. eigenvalues --   -0.69057  -0.68966  -0.68496  -0.66112  -0.65595
 Alpha  occ. eigenvalues --   -0.64966  -0.63789  -0.63283  -0.63120  -0.60823
 Alpha  occ. eigenvalues --   -0.60798  -0.60407  -0.59662  -0.58604  -0.58161
 Alpha  occ. eigenvalues --   -0.55237  -0.54816  -0.54662  -0.54031  -0.53858
 Alpha  occ. eigenvalues --   -0.53245  -0.52589  -0.52505  -0.51891  -0.51335
 Alpha  occ. eigenvalues --   -0.51134  -0.49922  -0.49730  -0.49356  -0.49061
 Alpha  occ. eigenvalues --   -0.48732  -0.48170  -0.47450  -0.46831  -0.46533
 Alpha  occ. eigenvalues --   -0.46499  -0.46246  -0.45779  -0.45553  -0.45212
 Alpha  occ. eigenvalues --   -0.44766  -0.44601  -0.43823  -0.43682  -0.43622
 Alpha  occ. eigenvalues --   -0.43321  -0.43163  -0.43075  -0.42553  -0.42383
 Alpha  occ. eigenvalues --   -0.42315  -0.41991  -0.41824  -0.41754  -0.41593
 Alpha  occ. eigenvalues --   -0.41403  -0.41382  -0.40975  -0.40820  -0.40458
 Alpha  occ. eigenvalues --   -0.40314  -0.40022  -0.39943  -0.39794  -0.39626
 Alpha  occ. eigenvalues --   -0.39282  -0.39190  -0.38961  -0.38606  -0.38335
 Alpha  occ. eigenvalues --   -0.37939  -0.37773  -0.37412  -0.36814  -0.36654
 Alpha  occ. eigenvalues --   -0.36486  -0.36382  -0.35972  -0.35016  -0.34694
 Alpha  occ. eigenvalues --   -0.34366  -0.34277  -0.33933  -0.33113  -0.33083
 Alpha  occ. eigenvalues --   -0.32681  -0.32323  -0.32007  -0.31200  -0.31074
 Alpha  occ. eigenvalues --   -0.30326  -0.29415  -0.28911  -0.28329  -0.28260
 Alpha  occ. eigenvalues --   -0.28022  -0.27656  -0.27377  -0.26928  -0.23951
 Alpha  occ. eigenvalues --   -0.23603  -0.23103  -0.22883  -0.22447  -0.21983
 Alpha  occ. eigenvalues --   -0.19391  -0.19057  -0.18978  -0.17949  -0.17499
 Alpha virt. eigenvalues --   -0.07265  -0.07174  -0.02512  -0.00815  -0.00436
 Alpha virt. eigenvalues --    0.00148   0.01102   0.02330   0.02837   0.03319
 Alpha virt. eigenvalues --    0.03696   0.04118   0.04822   0.05171   0.05303

 Mulliken charges:
               1
     1  C   -0.394548
     2  C    0.119149
     3  N   -0.209130
     4  C   -0.235497
     5  C   -0.021546
     6  N    0.110466
     7  H    0.155918
     8  H    0.139267
     9  H    0.281411
    10  H    0.173708
    11  H    0.196922
    12  C   -0.411479
    13  C    0.141704
    14  N   -0.211006
    15  C   -0.239393
    16  C   -0.017200
    17  N    0.079862
    18  H    0.142843
    19  H    0.159208
    20  H    0.287651
    21  H    0.169361
    22  H    0.187683
    23  C   -0.538055
    24  C   -0.628619
    25  C   -0.539546
    26  C   -0.620467
    27  C    0.221131
    28  C   -0.049361
    29  C   -0.014389
    30  C    0.261757
    31  C   -0.469412
    32  C   -0.300223
    33  C   -0.249321
    34  C    0.317035
    35  O   -0.387156
    36  O   -0.370456
    37  C    0.214299
    38  C   -0.098938
    39  C    0.024820
    40  C    0.244722
    41  C   -0.415431
    42  C   -0.272609
    43  C   -0.332528
    44  C    0.258008
    45  C   -0.145334
    46  C    0.106407
    47  C    0.120795
    48  C   -0.428936
    49  C   -0.285171
    50  C   -0.311608
    51  C    0.256536
    52  C   -0.059223
    53  C   -0.044564
    54  C    0.269679
    55  C   -0.466639
    56  C   -0.360998
    57  C   -0.238799
    58  C    0.338306
    59  O   -0.330398
    60  O   -0.417239
    61  N   -0.046433
    62  N   -0.030664
    63  N   -0.025052
    64  N   -0.042382
    65  Fe  -0.228172
    66  H    0.150326
    67  H    0.149333
    68  H    0.141500
    69  H    0.147961
    70  H    0.143369
    71  H    0.161249
    72  H    0.156358
    73  H    0.145441
    74  H    0.153179
    75  H    0.123739
    76  H    0.140130
    77  H    0.150343
    78  H    0.130617
    79  H    0.143863
    80  H    0.158836
    81  H    0.148036
    82  H    0.159934
    83  H    0.147444
    84  H    0.152496
    85  H    0.160801
    86  H    0.146099
    87  H    0.157827
    88  H    0.151961
    89  H    0.159564
    90  H    0.162586
    91  H    0.146936
    92  H    0.119089
    93  H    0.141093
    94  H    0.127747
    95  H    0.132980
    96  H    0.159125
    97  H    0.153354
    98  H    0.393697
    99  H    0.392259
 Sum of Mulliken charges =  -0.00000

 Dipole moment (field-independent basis, Debye):
    X=             -2.9824    Y=              4.8010    Z=              2.3229  Tot=              6.1106
 Quadrupole moment (field-independent basis, Debye-Ang):
   XX=           -361.0519   YY=           -334.9252   ZZ=           -255.5327
   XY=              6.4486   XZ=             23.9427   YZ=             20.0390

 Normal termination of Gaussian 16 at Thu Oct 13 00:54:05 2022.
