 Gaussian 16, Revision A.03,
 Gaussian 16:  ES64L-G16RevA.03 25-Dec-2016

 ----------------------------------------------------------------------
 # PBE1PBE/def2TZVP empiricaldispersion=GD3BJ scf=maxcycle=999 geom=che
 ck pop=nbo
 ----------------------------------------------------------------------

 ----------
 2gsm_III_D
 ----------
 Structure from the checkpoint file:  "2gsm_III_D.chk"
 Charge =  1 Multiplicity = 2

                         Standard orientation:
 ---------------------------------------------------------------------
 Center     Atomic      Atomic             Coordinates (Angstroms)
 Number     Number       Type             X           Y           Z
 ---------------------------------------------------------------------
      1          6           0       -0.514159   -0.889651    5.116774
      2          6           0        0.318559   -0.748219    3.867598
      3          7           0        1.671159   -1.016014    3.844635
      4          6           0       -0.001279   -0.335145    2.612737
      5          6           0        2.150671   -0.772999    2.632786
      6          7           0        1.154316   -0.366543    1.861458
      7         26           0        0.979555    0.058860   -0.196649
      8          6           0       -2.473216   -0.111193   -0.172800
      9          6           0        1.143814   -3.330182   -0.907639
     10          6           0        4.410096    0.271037   -0.600190
     11          6           0        0.810378    3.474352    0.060651
     12          7           0       -0.422719   -1.471668   -0.480800
     13          6           0       -1.795613   -1.283534   -0.487776
     14          6           0       -2.391008   -2.549427   -0.853577
     15          6           0       -1.400670   -3.439615   -1.067344
     16          6           0       -0.132640   -2.780246   -0.824814
     17          6           0       -1.604658   -4.879911   -1.493963
     18          6           0       -3.896169   -2.832725   -0.994771
     19          6           0       -4.473204   -3.280400    0.347611
     20          6           0       -5.984783   -3.309008    0.264018
     21          8           0       -6.582033   -4.344531    0.657985
     22          8           0       -6.609977   -2.307316   -0.192940
     23          7           0        2.534736   -1.308801   -0.714764
     24          6           0        2.368146   -2.670165   -0.855479
     25          6           0        3.704711   -3.248725   -0.937124
     26          6           0        4.604866   -2.254498   -0.860675
     27          6           0        3.876619   -0.994977   -0.712119
     28          6           0        4.036494   -4.746506   -1.086700
     29          7           0        2.359313    1.594029   -0.253723
     30          6           0        3.722165    1.462070   -0.439530
     31          6           0        4.306353    2.785034   -0.426143
     32          6           0        3.317987    3.686557   -0.231884
     33          6           0        2.064387    2.950354   -0.117421
     34          6           0        5.801746    3.079302   -0.624639
     35          6           0        3.461427    5.212749   -0.161858
     36          6           0        4.744309    5.558613   -0.428615
     37          7           0       -0.579091    1.441909   -0.051675
     38          6           0       -0.412964    2.806637   -0.003164
     39          6           0       -1.744359    3.399204   -0.002765
     40          6           0       -2.644139    2.408418   -0.063949
     41          6           0       -1.921983    1.148502   -0.098274
     42          6           0       -2.036564    4.915541    0.044363
     43          6           0       -4.170080    2.501943   -0.055051
     44          6           0       -4.839178    3.004634   -1.331631
     45          6           0       -6.293702    3.178477   -0.918484
     46          8           0       -7.078292    2.197866   -0.977129
     47          8           0       -6.656199    4.302628   -0.513191
     48          6           0        6.137457   -2.403427   -1.017610
     49          6           0        6.596043   -3.716308   -0.356064
     50          1           0       -1.311836   -1.579903    4.937429
     51          1           0        0.099005   -1.252742    5.914956
     52          1           0       -0.920527    0.063333    5.384329
     53          1           0        2.207762   -1.343192    4.622460
     54          1           0        3.170487   -0.886209    2.329375
     55          1           0       -0.971296   -0.039963    2.270924
     56          1           0       -3.520312   -0.195545    0.030605
     57          1           0        0.764118    4.521770    0.274366
     58          1           0        5.476945    0.341527   -0.642215
     59          1           0        1.189215   -4.392627   -1.026162
     60          1           0       -2.223470   -4.909255   -2.366380
     61          1           0       -0.656559   -5.324393   -1.714062
     62          1           0       -2.077927   -5.422693   -0.702569
     63          1           0       -3.093170    5.073477    0.103858
     64          1           0       -1.563051    5.343495    0.903166
     65          1           0       -1.655845    5.379832   -0.841293
     66          1           0       -4.557896    1.527637    0.157614
     67          1           0       -4.454790    3.154092    0.744037
     68          1           0       -4.753126    2.279298   -2.113541
     69          1           0       -4.418551    3.940650   -1.634696
     70          1           0       -7.877850    2.253793   -1.505502
     71          1           0       -7.448550   -2.429733   -0.643948
     72          1           0       -4.110560   -4.259176    0.582957
     73          1           0       -4.171302   -2.595032    1.111827
     74          1           0       -4.045124   -3.605131   -1.720100
     75          1           0       -4.395835   -1.942946   -1.316529
     76          1           0        3.561163   -5.131156   -1.964769
     77          1           0        5.095922   -4.870421   -1.171297
     78          1           0        3.682718   -5.277685   -0.227869
     79          1           0        6.389490   -2.420941   -2.057356
     80          1           0        6.626292   -1.576671   -0.545999
     81          1           0        6.240079   -4.547380   -0.928348
     82          1           0        7.665036   -3.741712   -0.317232
     83          1           0        6.201641   -3.772028    0.637034
     84          1           0        5.945650    3.580680   -1.558882
     85          1           0        6.151499    3.702156    0.171995
     86          1           0        6.349161    2.159934   -0.625219
     87          1           0        4.777624    6.140457   -1.325971
     88          1           0        5.134953    6.134213    0.384393
     89          1           0        5.333250    4.674247   -0.554885
     90          1           0        2.812783    5.665388   -0.882467
     91          1           0        3.197190    5.551227    0.818199
 ---------------------------------------------------------------------

 SCF Done:  E(UPBE1PBE) =  -3364.49760672     A.U. after  210 cycles

 Alpha virt. eigenvalues --    0.55454   0.55939   0.55993   0.56229   0.56614
 Alpha virt. eigenvalues --    0.56689   0.57073   0.57148   0.57556   0.57666
 Alpha virt. eigenvalues --    0.58249   0.58534   0.58716   0.59036   0.59294

  Beta  occ. eigenvalues -- -256.53882 -30.29780 -26.13188 -26.12439 -26.11916
  Beta  occ. eigenvalues --  -19.33866 -19.32889 -19.25013 -19.24662 -14.56662
  Beta  occ. eigenvalues --  -14.53103 -14.50478 -14.50475 -14.50339 -14.50235
  Beta  occ. eigenvalues --  -10.42637 -10.42496 -10.40750 -10.37817 -10.36651
  Beta  occ. eigenvalues --  -10.36571 -10.36529 -10.36527 -10.36514 -10.36509
  Beta  occ. eigenvalues --  -10.36416 -10.36254 -10.35407 -10.33674 -10.33649
  Beta  occ. eigenvalues --  -10.33406 -10.33234 -10.32954 -10.32880 -10.32826
  Beta  occ. eigenvalues --  -10.32745 -10.32690 -10.32538 -10.32527 -10.32488
  Beta  occ. eigenvalues --  -10.32431 -10.31806 -10.31769 -10.31488 -10.31412
  Beta  occ. eigenvalues --  -10.30994 -10.30791 -10.30234 -10.30143 -10.29544
  Beta  occ. eigenvalues --  -10.29020 -10.28600 -10.24817  -3.62306  -2.38737
  Beta  occ. eigenvalues --   -2.37424  -2.35829  -1.23698  -1.23602  -1.18626
  Beta  occ. eigenvalues --   -1.09625  -1.09380  -1.08935  -1.08596  -1.08254
  Beta  occ. eigenvalues --   -1.07492  -1.03390  -0.94854  -0.94704  -0.93372
  Beta  occ. eigenvalues --   -0.93145  -0.92725  -0.92428  -0.92296  -0.91679
  Beta  occ. eigenvalues --   -0.88920  -0.88454  -0.87841  -0.87021  -0.86162
  Beta  occ. eigenvalues --   -0.84459  -0.83622  -0.82749  -0.82032  -0.81905
  Beta  occ. eigenvalues --   -0.79942  -0.78338  -0.77768  -0.76912  -0.76876
  Beta  occ. eigenvalues --   -0.76783  -0.74052  -0.73848  -0.73689  -0.73219
  Beta  occ. eigenvalues --   -0.71257  -0.70460  -0.69702  -0.68357  -0.66658
  Beta  occ. eigenvalues --   -0.66063  -0.65706  -0.64536  -0.63617  -0.63414
  Beta  occ. eigenvalues --   -0.62776  -0.60725  -0.60572  -0.59649  -0.59538
  Beta  occ. eigenvalues --   -0.59359  -0.59298  -0.59056  -0.58164  -0.58027
  Beta  occ. eigenvalues --   -0.57809  -0.57700  -0.57035  -0.56603  -0.56353
  Beta  occ. eigenvalues --   -0.55729  -0.55457  -0.55133  -0.54778  -0.54593
  Beta  occ. eigenvalues --   -0.54494  -0.54304  -0.53882  -0.53512  -0.53451
  Beta  occ. eigenvalues --   -0.53371  -0.52813  -0.52730  -0.52595  -0.52513
  Beta  occ. eigenvalues --   -0.52128  -0.51727  -0.51493  -0.51203  -0.50916
  Beta  occ. eigenvalues --   -0.50852  -0.50386  -0.50042  -0.49704  -0.49506
  Beta  occ. eigenvalues --   -0.49313  -0.48636  -0.48571  -0.48368  -0.48056
  Beta  occ. eigenvalues --   -0.47764  -0.47678  -0.47012  -0.46740  -0.46622
  Beta  occ. eigenvalues --   -0.46058  -0.45804  -0.45689  -0.44968  -0.44466
  Beta  occ. eigenvalues --   -0.44017  -0.43755  -0.43632  -0.43061  -0.42714
  Beta  occ. eigenvalues --   -0.42347  -0.41950  -0.41297  -0.40901  -0.40340
  Beta  occ. eigenvalues --   -0.40197  -0.39659  -0.39365  -0.39108  -0.38852
  Beta  occ. eigenvalues --   -0.36190  -0.35525  -0.35420  -0.34728  -0.34649
  Beta  occ. eigenvalues --   -0.34143  -0.33723  -0.31405  -0.29967
  Beta virt. eigenvalues --   -0.20388  -0.18637  -0.18318  -0.17167  -0.15941
  Beta virt. eigenvalues --   -0.11601  -0.09473  -0.08257  -0.07307  -0.07038
  Beta virt. eigenvalues --   -0.06796  -0.06354  -0.05624  -0.05200  -0.04416

 Mulliken charges and spin densities:
               1          2
     1  C   -0.341970  -0.001012
     2  C    0.099148  -0.003119
     3  N   -0.200876   0.002041
     4  C   -0.143126   0.003589
     5  C    0.040687   0.014662
     6  N   -0.037198  -0.094299
     7  Fe   0.085376   1.315791
     8  C   -0.530465  -0.020524
     9  C   -0.520712  -0.026949
    10  C   -0.525685  -0.027240
    11  C   -0.462399  -0.031876
    12  N   -0.087371  -0.069676
    13  C    0.258843   0.013571
    14  C    0.044499  -0.000906
    15  C   -0.097294   0.012331
    16  C    0.360468   0.012492
    17  C   -0.374951  -0.000651
    18  C   -0.321913  -0.001267
    19  C   -0.162151   0.000062
    20  C    0.269617  -0.000010
    21  O   -0.358589  -0.000045
    22  O   -0.350738  -0.000002
    23  N   -0.123963  -0.073356
    24  C    0.247228   0.011681
    25  C   -0.083542   0.009935
    26  C   -0.092591  -0.003560
    27  C    0.259418   0.017146
    28  C   -0.325899  -0.000854
    29  N   -0.069301  -0.073542
    30  C    0.344487   0.016632
    31  C   -0.100609  -0.001421
    32  C   -0.167836   0.013757
    33  C    0.263877   0.013890
    34  C   -0.338848  -0.001042
    35  C   -0.023679  -0.001068
    36  C   -0.410429  -0.000072
    37  N   -0.110952  -0.064190
    38  C    0.319744   0.013499
    39  C   -0.085092   0.011078
    40  C    0.104576  -0.002137
    41  C    0.287360   0.012766
    42  C   -0.399823  -0.000671
    43  C   -0.491620  -0.001248
    44  C   -0.117569   0.000210
    45  C    0.267188   0.000020
    46  O   -0.351553   0.000002
    47  O   -0.341360  -0.000050
    48  C   -0.190710  -0.000728
    49  C   -0.331086  -0.000331
    50  H    0.160483   0.000045
    51  H    0.131851  -0.000159
    52  H    0.162581   0.000065
    53  H    0.252349  -0.001072
    54  H    0.183877  -0.000859
    55  H    0.170391  -0.000040
    56  H    0.158593   0.001101
    57  H    0.160285   0.001394
    58  H    0.106913   0.001597
    59  H    0.145398   0.001179
    60  H    0.152927   0.000435
    61  H    0.130423  -0.000038
    62  H    0.151462   0.000491
    63  H    0.163971  -0.000090
    64  H    0.144287   0.000415
    65  H    0.157339   0.000473
    66  H    0.128357  -0.000026
    67  H    0.165211  -0.000164
    68  H    0.113763  -0.000047
    69  H    0.140652  -0.000014
    70  H    0.363965   0.000001
    71  H    0.359346   0.000001
    72  H    0.137749  -0.000014
    73  H    0.126823  -0.000034
    74  H    0.138983  -0.000083
    75  H    0.146639   0.000039
    76  H    0.142750   0.000397
    77  H    0.116915  -0.000065
    78  H    0.142089   0.000530
    79  H    0.134872   0.000047
    80  H    0.110645  -0.000018
    81  H    0.110871   0.000017
    82  H    0.139668  -0.000086
    83  H    0.124342  -0.000008
    84  H    0.167160   0.000190
    85  H    0.160781  -0.000112
    86  H    0.136470  -0.000072
    87  H    0.122895  -0.000035
    88  H    0.124835  -0.000081
    89  H    0.104616   0.000009
    90  H    0.117268   0.000627
    91  H    0.108590   0.000753
 Sum of Mulliken charges =   1.00000   1.00000

 Dipole moment (field-independent basis, Debye):
    X=              7.0591    Y=             -1.5471    Z=              2.8114  Tot=              7.7542
 Quadrupole moment (field-independent basis, Debye-Ang):
   XX=           -207.7706   YY=           -259.2688   ZZ=           -244.8667
   XY=             -5.2227   XZ=             32.7588   YZ=             -0.4065

 Summary of Natural Population Analysis:

                                       Natural Population
                Natural  -----------------------------------------------
    Atom  No    Charge         Core      Valence    Rydberg      Total
 -----------------------------------------------------------------------
      C    1   -0.32141      0.99969     2.31853    0.00319     3.32141
      C    2    0.06209      0.99956     1.92924    0.00911     2.93791
      N    3   -0.23191      0.99968     2.72216    0.01006     3.73191
      C    4   -0.03698      0.99946     2.02819    0.00933     3.03698
      C    5    0.10866      0.99969     1.88163    0.01002     2.89134
      N    6   -0.24122      0.99971     2.71959    0.02192     3.74122
     Fe    7    1.06620      8.99610     2.92386    0.01385    11.93380
      C    8   -0.12641      0.99948     2.11847    0.00846     3.12641
      C    9   -0.11446      0.99950     2.10710    0.00786     3.11446
      C   10   -0.12618      0.99948     2.11860    0.00809     3.12618
      C   11   -0.11987      0.99949     2.11234    0.00805     3.11987
      N   12   -0.25049      0.99968     2.72919    0.02161     3.75049
      C   13    0.08430      0.99953     1.90600    0.01017     2.91570
      C   14   -0.00905      0.99940     2.00034    0.00931     3.00905
      C   15    0.00145      0.99942     1.99097    0.00817     2.99855
      C   16    0.07986      0.99954     1.91022    0.01039     2.92014
      C   17   -0.31990      0.99970     2.31411    0.00609     3.31990
      C   18   -0.21372      0.99967     2.20738    0.00667     3.21372
      C   19   -0.24446      0.99963     2.23619    0.00865     3.24446
      C   20    0.37732      0.99977     1.60493    0.01798     2.62268
      O   21   -0.29377      0.99990     3.28198    0.01189     4.29377
      O   22   -0.33218      0.99982     3.31923    0.01313     4.33218
      N   23   -0.25112      0.99968     2.72923    0.02221     3.75112
      C   24    0.07836      0.99955     1.91184    0.01025     2.92164
      C   25   -0.00004      0.99939     1.99231    0.00834     3.00004
      C   26   -0.01201      0.99939     2.00323    0.00939     3.01201
      C   27    0.08543      0.99954     1.90456    0.01048     2.91457
      C   28   -0.31303      0.99966     2.30977    0.00361     3.31303
      N   29   -0.24874      0.99969     2.72695    0.02210     3.74874
      C   30    0.08974      0.99953     1.90010    0.01063     2.91026
      C   31   -0.01420      0.99941     2.00635    0.00844     3.01420
      C   32    0.01225      0.99942     1.97936    0.00897     2.98775
      C   33    0.08315      0.99953     1.90766    0.00967     2.91685
      C   34   -0.32841      0.99969     2.32397    0.00476     3.32841
      C   35   -0.21579      0.99956     2.20816    0.00806     3.21579
      C   36   -0.31317      0.99961     2.30505    0.00850     3.31317
      N   37   -0.25027      0.99967     2.72844    0.02216     3.75027
      C   38    0.08365      0.99955     1.90670    0.01010     2.91635
      C   39    0.00490      0.99938     1.98774    0.00798     2.99510
      C   40   -0.01226      0.99939     2.00313    0.00974     3.01226
      C   41    0.08324      0.99953     1.90678    0.01045     2.91676
      C   42   -0.32108      0.99969     2.31774    0.00364     3.32108
      C   43   -0.21055      0.99965     2.20443    0.00646     3.21055
      C   44   -0.24533      0.99963     2.23709    0.00861     3.24533
      C   45    0.38300      0.99977     1.59853    0.01870     2.61700
      O   46   -0.34235      0.99980     3.32849    0.01405     4.34235
      O   47   -0.28632      0.99989     3.27431    0.01211     4.28632
      C   48   -0.21124      0.99969     2.20530    0.00625     3.21124
      C   49   -0.28525      0.99969     2.28246    0.00311     3.28525
      H   50    0.12073      0.00000     0.37873    0.00054     0.37927
      H   51    0.11254      0.00000     0.38690    0.00056     0.38746
      H   52    0.12109      0.00000     0.37837    0.00055     0.37891
      H   53    0.21447      0.00000     0.28474    0.00078     0.28553
      H   54    0.11541      0.00000     0.38372    0.00087     0.38459
      H   55    0.12055      0.00000     0.37862    0.00084     0.37945
      H   56    0.11660      0.00000     0.38223    0.00117     0.38340
      H   57    0.11875      0.00000     0.38020    0.00105     0.38125
      H   58    0.11492      0.00000     0.38324    0.00184     0.38508
      H   59    0.11607      0.00000     0.38273    0.00121     0.38393
      H   60    0.11659      0.00000     0.38274    0.00067     0.38341
      H   61    0.11136      0.00000     0.38821    0.00043     0.38864
      H   62    0.11574      0.00000     0.38356    0.00070     0.38426
      H   63    0.11705      0.00000     0.38223    0.00073     0.38295
      H   64    0.11400      0.00000     0.38535    0.00065     0.38600
      H   65    0.11571      0.00000     0.38362    0.00066     0.38429
      H   66    0.10714      0.00000     0.39196    0.00090     0.39286
      H   67    0.11861      0.00000     0.38054    0.00084     0.38139
      H   68    0.10964      0.00000     0.38960    0.00076     0.39036
      H   69    0.11971      0.00000     0.37965    0.00064     0.38029
      H   70    0.26227      0.00000     0.23657    0.00116     0.23773
      H   71    0.26003      0.00000     0.23863    0.00135     0.23997
      H   72    0.12167      0.00000     0.37760    0.00073     0.37833
      H   73    0.11349      0.00000     0.38585    0.00066     0.38651
      H   74    0.11388      0.00000     0.38537    0.00074     0.38612
      H   75    0.11410      0.00000     0.38506    0.00084     0.38590
      H   76    0.11342      0.00000     0.38589    0.00069     0.38658
      H   77    0.10483      0.00000     0.39438    0.00078     0.39517
      H   78    0.11271      0.00000     0.38661    0.00068     0.38729
      H   79    0.11353      0.00000     0.38566    0.00081     0.38647
      H   80    0.10683      0.00000     0.39254    0.00063     0.39317
      H   81    0.09258      0.00000     0.40672    0.00070     0.40742
      H   82    0.10973      0.00000     0.38969    0.00058     0.39027
      H   83    0.10326      0.00000     0.39610    0.00064     0.39674
      H   84    0.12020      0.00000     0.37906    0.00074     0.37980
      H   85    0.11938      0.00000     0.37978    0.00085     0.38062
      H   86    0.10996      0.00000     0.38939    0.00065     0.39004
      H   87    0.10726      0.00000     0.39219    0.00055     0.39274
      H   88    0.10646      0.00000     0.39300    0.00054     0.39354
      H   89    0.11301      0.00000     0.38596    0.00103     0.38699
      H   90    0.11244      0.00000     0.38681    0.00074     0.38756
      H   91    0.11184      0.00000     0.38740    0.00076     0.38816
 =======================================================================
   * Total *    1.00000     56.97685   126.47715    0.54600   184.00000

 Normal termination of Gaussian 16 at Mon Sep  5 19:18:51 2022.
