 Gaussian 16, Revision A.03,
 Gaussian 16:  ES64L-G16RevA.03 25-Dec-2016

 ----------------------------------------------------------------------
 # PBE1PBE/def2TZVP empiricaldispersion=GD3BJ int=(grid=ultrafine) geom
 =check pop=nbo
 ----------------------------------------------------------------------

 ---------
 2gsm_II_Q
 ---------
 Structure from the checkpoint file:  "2gsm_II_Q.chk"
 Charge =  0 Multiplicity = 5

                         Standard orientation:
 ---------------------------------------------------------------------
 Center     Atomic      Atomic             Coordinates (Angstroms)
 Number     Number       Type             X           Y           Z
 ---------------------------------------------------------------------
      1          6           0       -0.514159   -0.889651    5.116774
      2          6           0        0.318559   -0.748219    3.867598
      3          7           0        1.671159   -1.016014    3.844635
      4          6           0       -0.001279   -0.335145    2.612737
      5          6           0        2.150671   -0.772999    2.632786
      6          7           0        1.154316   -0.366543    1.861458
      7         26           0        0.979555    0.058860   -0.196649
      8          6           0       -2.473216   -0.111193   -0.172800
      9          6           0        1.143814   -3.330182   -0.907639
     10          6           0        4.410096    0.271037   -0.600190
     11          6           0        0.810378    3.474352    0.060651
     12          7           0       -0.422719   -1.471668   -0.480800
     13          6           0       -1.795613   -1.283534   -0.487776
     14          6           0       -2.391008   -2.549427   -0.853577
     15          6           0       -1.400670   -3.439615   -1.067344
     16          6           0       -0.132640   -2.780246   -0.824814
     17          6           0       -1.604658   -4.879911   -1.493963
     18          6           0       -3.896169   -2.832725   -0.994771
     19          6           0       -4.473204   -3.280400    0.347611
     20          6           0       -5.984783   -3.309008    0.264018
     21          8           0       -6.582033   -4.344531    0.657985
     22          8           0       -6.609977   -2.307316   -0.192940
     23          7           0        2.534736   -1.308801   -0.714764
     24          6           0        2.368146   -2.670165   -0.855479
     25          6           0        3.704711   -3.248725   -0.937124
     26          6           0        4.604866   -2.254498   -0.860675
     27          6           0        3.876619   -0.994977   -0.712119
     28          6           0        4.036494   -4.746506   -1.086700
     29          7           0        2.359313    1.594029   -0.253723
     30          6           0        3.722165    1.462070   -0.439530
     31          6           0        4.306353    2.785034   -0.426143
     32          6           0        3.317987    3.686557   -0.231884
     33          6           0        2.064387    2.950354   -0.117421
     34          6           0        5.801746    3.079302   -0.624639
     35          6           0        3.461427    5.212749   -0.161858
     36          6           0        4.744309    5.558613   -0.428615
     37          7           0       -0.579091    1.441909   -0.051675
     38          6           0       -0.412964    2.806637   -0.003164
     39          6           0       -1.744359    3.399204   -0.002765
     40          6           0       -2.644139    2.408418   -0.063949
     41          6           0       -1.921983    1.148502   -0.098274
     42          6           0       -2.036564    4.915541    0.044363
     43          6           0       -4.170080    2.501943   -0.055051
     44          6           0       -4.839178    3.004634   -1.331631
     45          6           0       -6.293702    3.178477   -0.918484
     46          8           0       -7.078292    2.197866   -0.977129
     47          8           0       -6.656199    4.302628   -0.513191
     48          6           0        6.137457   -2.403427   -1.017610
     49          6           0        6.596043   -3.716308   -0.356064
     50          1           0       -1.311836   -1.579903    4.937429
     51          1           0        0.099005   -1.252742    5.914956
     52          1           0       -0.920527    0.063333    5.384329
     53          1           0        2.207762   -1.343192    4.622460
     54          1           0        3.170487   -0.886209    2.329375
     55          1           0       -0.971296   -0.039963    2.270924
     56          1           0       -3.520312   -0.195545    0.030605
     57          1           0        0.764118    4.521770    0.274366
     58          1           0        5.476945    0.341527   -0.642215
     59          1           0        1.189215   -4.392627   -1.026162
     60          1           0       -2.223470   -4.909255   -2.366380
     61          1           0       -0.656559   -5.324393   -1.714062
     62          1           0       -2.077927   -5.422693   -0.702569
     63          1           0       -3.093170    5.073477    0.103858
     64          1           0       -1.563051    5.343495    0.903166
     65          1           0       -1.655845    5.379832   -0.841293
     66          1           0       -4.557896    1.527637    0.157614
     67          1           0       -4.454790    3.154092    0.744037
     68          1           0       -4.753126    2.279298   -2.113541
     69          1           0       -4.418551    3.940650   -1.634696
     70          1           0       -7.877850    2.253793   -1.505502
     71          1           0       -7.448550   -2.429733   -0.643948
     72          1           0       -4.110560   -4.259176    0.582957
     73          1           0       -4.171302   -2.595032    1.111827
     74          1           0       -4.045124   -3.605131   -1.720100
     75          1           0       -4.395835   -1.942946   -1.316529
     76          1           0        3.561163   -5.131156   -1.964769
     77          1           0        5.095922   -4.870421   -1.171297
     78          1           0        3.682718   -5.277685   -0.227869
     79          1           0        6.389490   -2.420941   -2.057356
     80          1           0        6.626292   -1.576671   -0.545999
     81          1           0        6.240079   -4.547380   -0.928348
     82          1           0        7.665036   -3.741712   -0.317232
     83          1           0        6.201641   -3.772028    0.637034
     84          1           0        5.945650    3.580680   -1.558882
     85          1           0        6.151499    3.702156    0.171995
     86          1           0        6.349161    2.159934   -0.625219
     87          1           0        4.777624    6.140457   -1.325971
     88          1           0        5.134953    6.134213    0.384393
     89          1           0        5.333250    4.674247   -0.554885
     90          1           0        2.812783    5.665388   -0.882467
     91          1           0        3.197190    5.551227    0.818199
 ---------------------------------------------------------------------

 SCF Done:  E(UPBE1PBE) =  -3364.72409943     A.U. after   72 cycles

 Alpha virt. eigenvalues --    0.65721   0.65872   0.66372   0.66479   0.66700
 Alpha virt. eigenvalues --    0.67059   0.67412   0.67861   0.68402   0.68592
 Alpha virt. eigenvalues --    0.68713   0.69044   0.69229   0.69400   0.69875

  Beta  occ. eigenvalues -- -256.30419 -30.02865 -25.87214 -25.85540 -25.85502
  Beta  occ. eigenvalues --  -19.26736 -19.26004 -19.17931 -19.17494 -14.45732
  Beta  occ. eigenvalues --  -14.39131 -14.35562 -14.35462 -14.35426 -14.35305
  Beta  occ. eigenvalues --  -10.35291 -10.35288 -10.29053 -10.26969 -10.24388
  Beta  occ. eigenvalues --  -10.24365 -10.24347 -10.24344 -10.24339 -10.24277
  Beta  occ. eigenvalues --  -10.24211 -10.24165 -10.24045 -10.23718 -10.23140
  Beta  occ. eigenvalues --  -10.22881 -10.22661 -10.22629 -10.22159 -10.21947
  Beta  occ. eigenvalues --  -10.21924 -10.21893 -10.21874 -10.21745 -10.21661
  Beta  occ. eigenvalues --  -10.21594 -10.21572 -10.21513 -10.21503 -10.21421
  Beta  occ. eigenvalues --  -10.21393 -10.21350 -10.20847 -10.20822 -10.20208
  Beta  occ. eigenvalues --  -10.20191 -10.19641 -10.16420  -3.34076  -2.09837
  Beta  occ. eigenvalues --   -2.08444  -2.08396  -1.16678  -1.16553  -1.07164
  Beta  occ. eigenvalues --   -1.02594  -1.01814  -0.96543  -0.95787  -0.95444
  Beta  occ. eigenvalues --   -0.94680  -0.91502  -0.84815  -0.83740  -0.83531
  Beta  occ. eigenvalues --   -0.82715  -0.82424  -0.81995  -0.80750  -0.80062
  Beta  occ. eigenvalues --   -0.78909  -0.78463  -0.77614  -0.76190  -0.75186
  Beta  occ. eigenvalues --   -0.73856  -0.73388  -0.72482  -0.72307  -0.71884
  Beta  occ. eigenvalues --   -0.69446  -0.69320  -0.68979  -0.66027  -0.65831
  Beta  occ. eigenvalues --   -0.65542  -0.64898  -0.64737  -0.63757  -0.62970
  Beta  occ. eigenvalues --   -0.61700  -0.59053  -0.57568  -0.57323  -0.55916
  Beta  occ. eigenvalues --   -0.55095  -0.54652  -0.53544  -0.52702  -0.52153
  Beta  occ. eigenvalues --   -0.51843  -0.51575  -0.50991  -0.50759  -0.50394
  Beta  occ. eigenvalues --   -0.49320  -0.48990  -0.48926  -0.48699  -0.48616
  Beta  occ. eigenvalues --   -0.48489  -0.48265  -0.47992  -0.47670  -0.46487
  Beta  occ. eigenvalues --   -0.45404  -0.45240  -0.44906  -0.44315  -0.44147
  Beta  occ. eigenvalues --   -0.44085  -0.43986  -0.43905  -0.43860  -0.43665
  Beta  occ. eigenvalues --   -0.43450  -0.43040  -0.42845  -0.42822  -0.42348
  Beta  occ. eigenvalues --   -0.41744  -0.41431  -0.41221  -0.40740  -0.40675
  Beta  occ. eigenvalues --   -0.40444  -0.39981  -0.39797  -0.39551  -0.39313
  Beta  occ. eigenvalues --   -0.38957  -0.38682  -0.38449  -0.38171  -0.37753
  Beta  occ. eigenvalues --   -0.37475  -0.37002  -0.36868  -0.36655  -0.35899
  Beta  occ. eigenvalues --   -0.35590  -0.35357  -0.35096  -0.34667  -0.33982
  Beta  occ. eigenvalues --   -0.33861  -0.33143  -0.32731  -0.32491  -0.32289
  Beta  occ. eigenvalues --   -0.32028  -0.31812  -0.30254  -0.29054  -0.28634
  Beta  occ. eigenvalues --   -0.28333  -0.27833  -0.27565  -0.27477  -0.27155
  Beta  occ. eigenvalues --   -0.25230  -0.24071  -0.23494  -0.23117  -0.22765
  Beta  occ. eigenvalues --   -0.19149  -0.18431  -0.15975
  Beta virt. eigenvalues --   -0.07390  -0.07300  -0.01241  -0.00705   0.00116
  Beta virt. eigenvalues --    0.00421   0.01446   0.02040   0.02222   0.02680
  Beta virt. eigenvalues --    0.02862   0.03823   0.03912   0.04422   0.04788

 Mulliken charges and spin densities:
               1          2
     1  C   -0.354624   0.000922
     2  C    0.110712  -0.000545
     3  N   -0.217464   0.003386
     4  C   -0.146842   0.007483
     5  C    0.031028   0.012447
     6  N   -0.106267   0.014365
     7  Fe   0.232376   3.852750
     8  C   -0.545401  -0.006643
     9  C   -0.536655  -0.009656
    10  C   -0.538254  -0.012833
    11  C   -0.483053  -0.011731
    12  N   -0.148623  -0.009336
    13  C    0.254780   0.012871
    14  C    0.035109   0.005247
    15  C   -0.095191   0.007567
    16  C    0.346829   0.014074
    17  C   -0.392801   0.000016
    18  C   -0.328098  -0.000493
    19  C   -0.153837   0.000215
    20  C    0.269067   0.000094
    21  O   -0.378492   0.000090
    22  O   -0.345931  -0.000009
    23  N   -0.174411  -0.005610
    24  C    0.235135   0.014672
    25  C   -0.090884   0.006962
    26  C   -0.083780   0.005001
    27  C    0.249452   0.017891
    28  C   -0.339648  -0.000295
    29  N   -0.133701  -0.010720
    30  C    0.334511   0.017768
    31  C   -0.095128   0.008245
    32  C   -0.177356   0.006344
    33  C    0.251985   0.016734
    34  C   -0.351087  -0.000143
    35  C   -0.027976  -0.000341
    36  C   -0.393279   0.000003
    37  N   -0.172415  -0.008063
    38  C    0.303809   0.016547
    39  C   -0.087693   0.005016
    40  C    0.095822   0.007548
    41  C    0.279953   0.015978
    42  C   -0.414420   0.000014
    43  C   -0.491895  -0.000745
    44  C   -0.106478   0.000421
    45  C    0.261190   0.000080
    46  O   -0.348811   0.000014
    47  O   -0.355376   0.000087
    48  C   -0.195902  -0.000169
    49  C   -0.323561   0.000251
    50  H    0.150801  -0.000035
    51  H    0.115821   0.000076
    52  H    0.150676  -0.000054
    53  H    0.230134   0.001652
    54  H    0.167184   0.000093
    55  H    0.156762   0.000399
    56  H    0.133116  -0.000173
    57  H    0.132484   0.000052
    58  H    0.084116   0.000039
    59  H    0.118226  -0.000050
    60  H    0.134889   0.000426
    61  H    0.123706  -0.000013
    62  H    0.134531   0.000208
    63  H    0.147916   0.000209
    64  H    0.133548   0.000152
    65  H    0.142608   0.000202
    66  H    0.125660   0.000015
    67  H    0.149796   0.000308
    68  H    0.108532   0.000034
    69  H    0.131909  -0.000031
    70  H    0.354095  -0.000005
    71  H    0.348262   0.000014
    72  H    0.128347  -0.000007
    73  H    0.129404   0.000013
    74  H    0.124562   0.000229
    75  H    0.136758   0.000135
    76  H    0.129401   0.000241
    77  H    0.104814   0.000228
    78  H    0.129436   0.000254
    79  H    0.114846   0.000241
    80  H    0.102043   0.000030
    81  H    0.102369  -0.000032
    82  H    0.117460   0.000097
    83  H    0.119236   0.000006
    84  H    0.149223   0.000358
    85  H    0.144391   0.000183
    86  H    0.125293  -0.000028
    87  H    0.103093   0.000014
    88  H    0.104084   0.000036
    89  H    0.108877   0.000105
    90  H    0.102512   0.000295
    91  H    0.092652   0.000315
 Sum of Mulliken charges =  -0.00000   4.00000

 Dipole moment (field-independent basis, Debye):
    X=              3.2387    Y=             -1.4795    Z=              2.6241  Tot=              4.4231
 Quadrupole moment (field-independent basis, Debye-Ang):
   XX=           -275.8815   YY=           -313.4632   ZZ=           -263.3703
   XY=             -5.5922   XZ=             34.3394   YZ=             -2.1545

 Summary of Natural Population Analysis:

                                       Natural Population
                Natural  -----------------------------------------------
    Atom  No    Charge         Core      Valence    Rydberg      Total
 -----------------------------------------------------------------------
      C    1   -0.31909      0.99970     2.31622    0.00318     3.31909
      C    2    0.04964      0.99955     1.94133    0.00948     2.95036
      N    3   -0.23831      0.99968     2.72845    0.01018     3.73831
      C    4   -0.03156      0.99946     2.02311    0.00899     3.03156
      C    5    0.10116      0.99969     1.88904    0.01011     2.89884
      N    6   -0.20239      0.99973     2.68427    0.01839     3.70239
     Fe    7    2.28158      8.99557     1.70707    0.01577    10.71842
      C    8   -0.12729      0.99948     2.11921    0.00861     3.12729
      C    9   -0.11540      0.99950     2.10783    0.00808     3.11540
      C   10   -0.12502      0.99948     2.11721    0.00834     3.12502
      C   11   -0.12018      0.99948     2.11247    0.00823     3.12018
      N   12   -0.23614      0.99972     2.71784    0.01858     3.73614
      C   13    0.07839      0.99954     1.91207    0.01000     2.92161
      C   14   -0.01701      0.99940     2.00793    0.00968     3.01701
      C   15   -0.01090      0.99941     2.00273    0.00876     3.01090
      C   16    0.07894      0.99955     1.91111    0.01040     2.92106
      C   17   -0.31892      0.99970     2.31549    0.00373     3.31892
      C   18   -0.21170      0.99967     2.20563    0.00639     3.21170
      C   19   -0.24520      0.99963     2.23689    0.00868     3.24520
      C   20    0.38049      0.99977     1.60160    0.01814     2.61951
      O   21   -0.30409      0.99990     3.29232    0.01187     4.30409
      O   22   -0.33130      0.99982     3.31823    0.01325     4.33130
      N   23   -0.23286      0.99972     2.71425    0.01889     3.73286
      C   24    0.07822      0.99956     1.91194    0.01029     2.92178
      C   25   -0.01237      0.99939     2.00430    0.00869     3.01237
      C   26   -0.01705      0.99939     2.00802    0.00965     3.01705
      C   27    0.07819      0.99954     1.91183    0.01043     2.92181
      C   28   -0.31201      0.99966     2.30872    0.00363     3.31201
      N   29   -0.23621      0.99973     2.71814    0.01834     3.73621
      C   30    0.08332      0.99954     1.90661    0.01054     2.91668
      C   31   -0.01884      0.99940     2.01060    0.00883     3.01884
      C   32   -0.00302      0.99942     1.99440    0.00920     3.00302
      C   33    0.08340      0.99954     1.90733    0.00973     2.91660
      C   34   -0.32861      0.99969     2.32415    0.00477     3.32861
      C   35   -0.21557      0.99957     2.20759    0.00841     3.21557
      C   36   -0.31106      0.99961     2.30299    0.00846     3.31106
      N   37   -0.23790      0.99971     2.71958    0.01860     3.73790
      C   38    0.08445      0.99956     1.90594    0.01004     2.91555
      C   39   -0.00754      0.99938     1.99965    0.00851     3.00754
      C   40   -0.01842      0.99938     2.00933    0.00970     3.01842
      C   41    0.07776      0.99954     1.91242    0.01028     2.92224
      C   42   -0.32043      0.99970     2.31713    0.00360     3.32043
      C   43   -0.20850      0.99965     2.20237    0.00648     3.20850
      C   44   -0.24583      0.99963     2.23761    0.00858     3.24583
      C   45    0.38565      0.99977     1.59568    0.01890     2.61435
      O   46   -0.34287      0.99980     3.32888    0.01419     4.34287
      O   47   -0.29437      0.99989     3.28242    0.01206     4.29437
      C   48   -0.20991      0.99969     2.20375    0.00646     3.20991
      C   49   -0.28655      0.99969     2.28374    0.00312     3.28655
      H   50    0.11623      0.00000     0.38318    0.00059     0.38377
      H   51    0.10697      0.00000     0.39244    0.00059     0.39303
      H   52    0.11603      0.00000     0.38337    0.00060     0.38397
      H   53    0.20733      0.00000     0.29184    0.00083     0.29267
      H   54    0.11161      0.00000     0.38751    0.00088     0.38839
      H   55    0.11892      0.00000     0.38028    0.00079     0.38108
      H   56    0.10695      0.00000     0.39191    0.00113     0.39305
      H   57    0.10928      0.00000     0.38960    0.00112     0.39072
      H   58    0.10529      0.00000     0.39281    0.00191     0.39471
      H   59    0.10674      0.00000     0.39199    0.00127     0.39326
      H   60    0.10985      0.00000     0.38935    0.00080     0.39015
      H   61    0.10895      0.00000     0.39044    0.00061     0.39105
      H   62    0.10902      0.00000     0.39011    0.00087     0.39098
      H   63    0.11099      0.00000     0.38825    0.00075     0.38901
      H   64    0.10976      0.00000     0.38953    0.00071     0.39024
      H   65    0.11084      0.00000     0.38842    0.00074     0.38916
      H   66    0.10632      0.00000     0.39277    0.00091     0.39368
      H   67    0.11211      0.00000     0.38675    0.00114     0.38789
      H   68    0.10892      0.00000     0.39031    0.00076     0.39108
      H   69    0.11831      0.00000     0.38102    0.00066     0.38169
      H   70    0.25902      0.00000     0.23973    0.00125     0.24098
      H   71    0.25647      0.00000     0.24203    0.00150     0.24353
      H   72    0.11971      0.00000     0.37954    0.00075     0.38029
      H   73    0.11582      0.00000     0.38349    0.00069     0.38418
      H   74    0.10718      0.00000     0.39165    0.00117     0.39282
      H   75    0.11163      0.00000     0.38750    0.00087     0.38837
      H   76    0.10844      0.00000     0.39079    0.00077     0.39156
      H   77    0.09945      0.00000     0.39973    0.00082     0.40055
      H   78    0.10814      0.00000     0.39110    0.00076     0.39186
      H   79    0.10758      0.00000     0.39152    0.00089     0.39242
      H   80    0.10455      0.00000     0.39478    0.00068     0.39545
      H   81    0.09160      0.00000     0.40767    0.00073     0.40840
      H   82    0.10272      0.00000     0.39664    0.00064     0.39728
      H   83    0.10289      0.00000     0.39643    0.00068     0.39711
      H   84    0.11405      0.00000     0.38513    0.00081     0.38595
      H   85    0.11338      0.00000     0.38570    0.00091     0.38662
      H   86    0.10846      0.00000     0.39086    0.00068     0.39154
      H   87    0.10179      0.00000     0.39761    0.00060     0.39821
      H   88    0.10064      0.00000     0.39876    0.00060     0.39936
      H   89    0.11504      0.00000     0.38388    0.00108     0.38496
      H   90    0.10771      0.00000     0.39150    0.00079     0.39229
      H   91    0.10650      0.00000     0.39270    0.00080     0.39350
 =======================================================================
   * Total *    2.00000     56.97657   125.48803    0.53539   183.00000

 Normal termination of Gaussian 16 at Sun Aug 28 18:39:37 2022.
