 Gaussian 16, Revision A.03,
 Gaussian 16:  ES64L-G16RevA.03 25-Dec-2016

 ----------------------------------------------------------------------
 # PBE1PBE/def2TZVP empiricaldispersion=GD3BJ int=(grid=ultrafine) geom
 =check pop=nbo
 ----------------------------------------------------------------------

 ---------
 1dj1_II_Q
 ---------
 Structure from the checkpoint file:  "1dj1_II_Q.chk"
 Charge =  0 Multiplicity = 5

                         Standard orientation:
 ---------------------------------------------------------------------
 Center     Atomic      Atomic             Coordinates (Angstroms)
 Number     Number       Type             X           Y           Z
 ---------------------------------------------------------------------
      1          6           0       -1.444174   -1.865382    5.050118
      2          6           0       -1.498607   -1.013993    3.808626
      3          7           0       -2.231865    0.139167    3.709204
      4          6           0       -0.914146   -1.175016    2.595920
      5          6           0       -2.096858    0.665164    2.503230
      6          7           0       -1.295447   -0.123387    1.805434
      7          6           0        2.393795    0.066198    0.040204
      8          6           0       -0.964645    3.543879   -0.145169
      9          6           0       -4.271036    0.109005   -0.665525
     10          6           0       -0.859581   -3.266799   -0.686226
     11          6           0        1.795281    1.358725    0.060166
     12          6           0        2.451617    2.569848    0.144195
     13          6           0        1.474970    3.574331    0.158187
     14          6           0        0.275436    2.902173    0.049059
     15          6           0        1.722805    5.077708    0.131454
     16          6           0        3.967497    2.780335    0.343882
     17          6           0        4.718878    2.872864   -0.966426
     18          6           0        6.244106    2.887923   -0.754200
     19          8           0        6.779280    3.852919   -0.214335
     20          8           0        6.941122    2.009898   -1.265120
     21          6           0       -2.218621    2.910197   -0.298711
     22          6           0       -3.444475    3.586342   -0.252847
     23          6           0       -4.411798    2.588158   -0.385848
     24          6           0       -3.712206    1.379267   -0.488668
     25          6           0       -3.569646    5.099841   -0.274923
     26          6           0       -5.763369    2.776278   -0.718439
     27          6           0       -6.471126    3.862744   -0.186844
     28          6           0       -3.660714   -1.159815   -0.853558
     29          6           0       -4.306568   -2.370728   -1.114323
     30          6           0       -3.261401   -3.295076   -1.295700
     31          6           0       -2.112699   -2.651385   -0.842603
     32          6           0       -5.718413   -2.583418   -1.718764
     33          6           0       -3.286334   -4.651230   -1.643327
     34          6           0       -4.345313   -5.619766   -1.460105
     35          6           0        0.272943   -2.701217   -0.081315
     36          6           0        1.472136   -3.393287    0.089211
     37          6           0        2.414142   -2.408311    0.397227
     38          6           0        1.795131   -1.195658    0.093209
     39          6           0        1.631787   -4.887409    0.359121
     40          6           0        3.894342   -2.679305    0.712962
     41          6           0        4.778101   -2.671847   -0.550899
     42          6           0        6.291797   -2.755547   -0.254580
     43          8           0        7.053650   -2.246969   -1.059064
     44          8           0        6.625000   -2.956546    0.903521
     45          7           0        0.478453    1.574353   -0.082442
     46          7           0       -2.396895    1.599085   -0.463145
     47          7           0       -2.328021   -1.322130   -0.745992
     48          7           0        0.484731   -1.381805   -0.148728
     49         26           0       -0.961935    0.102152   -0.216955
     50          8           0       -0.477748    0.272847   -2.254685
     51          1           0       -5.205299   -5.368004   -0.875349
     52          1           0       -4.268538   -6.587849   -1.909349
     53          1           0       -2.398038   -5.023219   -2.109648
     54          1           0       -5.752635   -3.527293   -2.221585
     55          1           0       -6.447410   -2.569846   -0.935642
     56          1           0       -5.929542   -1.799898   -2.416202
     57          1           0       -0.759198   -4.262534   -1.064823
     58          1           0        2.298994   -5.310873   -0.362276
     59          1           0        2.030394   -5.031781    1.341551
     60          1           0        0.677868   -5.366757    0.287259
     61          1           0        3.977383   -3.634822    1.187294
     62          1           0        4.247663   -1.926584    1.386368
     63          1           0        4.504155   -3.505526   -1.163135
     64          1           0        4.586771   -1.770677   -1.095129
     65          1           0        7.287470   -2.717516   -1.862502
     66          1           0        6.765811    1.719880   -2.163316
     67          1           0        4.460665    2.032018   -1.575691
     68          1           0        4.428946    3.770719   -1.471099
     69          1           0        4.358583    1.960333    0.909169
     70          1           0        4.121047    3.684710    0.894726
     71          1           0        3.461781    0.060510   -0.025170
     72          1           0        1.580523    5.445009   -0.863406
     73          1           0        1.036566    5.564133    0.792791
     74          1           0        2.725344    5.279570    0.446206
     75          1           0       -0.955689    4.613286   -0.179660
     76          1           0       -3.949384    5.412497   -1.225157
     77          1           0       -4.239972    5.413597    0.497812
     78          1           0       -2.607762    5.539676   -0.112977
     79          1           0       -6.252624    2.090049   -1.377696
     80          1           0       -7.379001    4.188159   -0.650275
     81          1           0       -6.103638    4.366872    0.682471
     82          1           0       -5.340839    0.089963   -0.657842
     83          1           0        0.066437   -0.332487   -2.763637
     84          1           0       -0.034491    0.485552   -1.430136
     85          1           0       -0.270262   -1.979601    2.307899
     86          1           0       -2.789157    0.527398    4.443168
     87          1           0       -2.554087    1.567364    2.154120
     88          1           0       -0.756440   -2.671243    4.900083
     89          1           0       -1.120089   -1.269267    5.877473
     90          1           0       -2.417328   -2.260396    5.254655
 ---------------------------------------------------------------------

 SCF Done:  E(UPBE1PBE) =  -3438.60838416     A.U. after   59 cycles

 Alpha virt. eigenvalues --    0.71267   0.71511   0.71654   0.71809   0.72172
 Alpha virt. eigenvalues --    0.72700   0.72814   0.73070   0.73128   0.73487
 Alpha virt. eigenvalues --    0.73845   0.74046   0.74465   0.75041   0.75157

  Beta  occ. eigenvalues -- -256.31821 -30.04349 -25.88004 -25.87781 -25.86897
  Beta  occ. eigenvalues --  -19.26691 -19.26077 -19.18511 -19.18364 -19.17175
  Beta  occ. eigenvalues --  -14.45526 -14.38956 -14.35874 -14.35545 -14.35456
  Beta  occ. eigenvalues --  -14.35434 -10.35152 -10.34514 -10.28804 -10.26832
  Beta  occ. eigenvalues --  -10.24638 -10.24466 -10.24457 -10.24152 -10.24145
  Beta  occ. eigenvalues --  -10.24144 -10.24107 -10.24006 -10.23975 -10.23694
  Beta  occ. eigenvalues --  -10.23588 -10.23537 -10.23104 -10.22909 -10.22769
  Beta  occ. eigenvalues --  -10.22753 -10.22661 -10.22632 -10.22610 -10.22573
  Beta  occ. eigenvalues --  -10.22543 -10.22524 -10.22416 -10.22406 -10.22259
  Beta  occ. eigenvalues --  -10.22203 -10.21990 -10.21682 -10.21609 -10.21556
  Beta  occ. eigenvalues --  -10.21547 -10.21514 -10.21271 -10.20814  -3.35818
  Beta  occ. eigenvalues --   -2.11189  -2.10544  -2.10359  -1.19202  -1.17816
  Beta  occ. eigenvalues --   -1.07478  -1.04555  -1.03686  -1.03069  -0.99685
  Beta  occ. eigenvalues --   -0.99156  -0.98769  -0.98029  -0.91636  -0.84027
  Beta  occ. eigenvalues --   -0.83474  -0.83279  -0.83215  -0.82503  -0.82092
  Beta  occ. eigenvalues --   -0.81481  -0.81080  -0.79389  -0.78601  -0.77081
  Beta  occ. eigenvalues --   -0.75808  -0.75120  -0.73916  -0.73511  -0.72838
  Beta  occ. eigenvalues --   -0.72033  -0.71360  -0.70741  -0.70060  -0.69630
  Beta  occ. eigenvalues --   -0.67387  -0.66806  -0.65924  -0.65647  -0.65444
  Beta  occ. eigenvalues --   -0.63168  -0.62759  -0.61931  -0.59000  -0.58490
  Beta  occ. eigenvalues --   -0.57698  -0.57518  -0.56788  -0.55581  -0.54851
  Beta  occ. eigenvalues --   -0.53884  -0.53697  -0.53559  -0.53087  -0.52611
  Beta  occ. eigenvalues --   -0.52451  -0.51708  -0.50804  -0.49822  -0.49065
  Beta  occ. eigenvalues --   -0.48953  -0.48889  -0.48736  -0.48649  -0.48177
  Beta  occ. eigenvalues --   -0.47156  -0.46335  -0.45934  -0.45802  -0.45252
  Beta  occ. eigenvalues --   -0.45176  -0.44807  -0.44491  -0.44346  -0.44173
  Beta  occ. eigenvalues --   -0.44029  -0.43894  -0.43638  -0.43405  -0.43067
  Beta  occ. eigenvalues --   -0.42847  -0.42751  -0.42319  -0.42198  -0.41950
  Beta  occ. eigenvalues --   -0.41449  -0.41225  -0.40929  -0.40662  -0.40202
  Beta  occ. eigenvalues --   -0.40097  -0.39510  -0.39404  -0.39142  -0.38989
  Beta  occ. eigenvalues --   -0.38774  -0.38454  -0.37907  -0.37744  -0.37381
  Beta  occ. eigenvalues --   -0.37074  -0.36960  -0.36567  -0.36249  -0.36185
  Beta  occ. eigenvalues --   -0.35480  -0.35360  -0.34871  -0.33841  -0.33596
  Beta  occ. eigenvalues --   -0.33553  -0.32527  -0.32270  -0.32163  -0.31214
  Beta  occ. eigenvalues --   -0.30857  -0.30328  -0.29501  -0.29231  -0.28322
  Beta  occ. eigenvalues --   -0.27668  -0.27349  -0.27298  -0.25491  -0.24116
  Beta  occ. eigenvalues --   -0.23696  -0.22364  -0.21879  -0.20114  -0.18829
  Beta  occ. eigenvalues --   -0.16876
  Beta virt. eigenvalues --   -0.08632  -0.08430  -0.04485  -0.01719  -0.01181
  Beta virt. eigenvalues --   -0.00720  -0.00636   0.00650   0.00669   0.00932
  Beta virt. eigenvalues --    0.01886   0.02187   0.02910   0.03164   0.04205

 Mulliken charges and spin densities:
               1          2
     1  C   -0.380450   0.001090
     2  C    0.153160   0.001816
     3  N   -0.211675   0.001777
     4  C   -0.175192   0.002273
     5  C    0.026875  -0.001292
     6  N   -0.052074   0.021744
     7  C   -0.564419  -0.021601
     8  C   -0.440570  -0.004260
     9  C   -0.511195  -0.026024
    10  C   -0.437956   0.007073
    11  C    0.271413   0.017015
    12  C    0.070651  -0.008053
    13  C   -0.108859   0.014588
    14  C    0.198330   0.000473
    15  C   -0.380379  -0.000175
    16  C   -0.384793   0.001416
    17  C   -0.229513  -0.000311
    18  C    0.302839  -0.000060
    19  O   -0.343449   0.000010
    20  O   -0.303858  -0.000010
    21  C    0.269814  -0.000026
    22  C   -0.128715   0.020308
    23  C    0.031030  -0.009374
    24  C    0.278805   0.020903
    25  C   -0.291389  -0.000614
    26  C   -0.190146   0.008462
    27  C   -0.298309  -0.012946
    28  C    0.260679   0.021654
    29  C   -0.077573  -0.014106
    30  C    0.018452   0.019759
    31  C    0.265260  -0.005813
    32  C   -0.409009   0.001636
    33  C   -0.185104  -0.011768
    34  C   -0.309592   0.017550
    35  C    0.149668  -0.012203
    36  C   -0.035028   0.016778
    37  C   -0.037852  -0.008880
    38  C    0.300950   0.022140
    39  C   -0.402938  -0.000150
    40  C   -0.258656   0.001588
    41  C   -0.312426  -0.000541
    42  C    0.284693  -0.000117
    43  O   -0.307078  -0.000017
    44  O   -0.314031  -0.000005
    45  N   -0.171544   0.014262
    46  N   -0.136906   0.012059
    47  N   -0.055531   0.018355
    48  N   -0.151553   0.018229
    49  Fe   0.040967   3.819126
    50  O   -0.438880   0.027185
    51  H    0.146209  -0.000761
    52  H    0.134271  -0.000670
    53  H    0.114628   0.000825
    54  H    0.154378  -0.000068
    55  H    0.131395  -0.000415
    56  H    0.135435  -0.000658
    57  H    0.110500  -0.000326
    58  H    0.128492   0.000509
    59  H    0.143824   0.000636
    60  H    0.136142   0.000003
    61  H    0.115852   0.000079
    62  H    0.142811  -0.000294
    63  H    0.126924   0.000012
    64  H    0.128533   0.000133
    65  H    0.347375  -0.000001
    66  H    0.342979   0.000000
    67  H    0.109151   0.000175
    68  H    0.131056   0.000017
    69  H    0.137958  -0.000343
    70  H    0.147908   0.000081
    71  H    0.122651   0.000334
    72  H    0.143321   0.000537
    73  H    0.131909   0.000190
    74  H    0.137701   0.000230
    75  H    0.114267  -0.000301
    76  H    0.142265   0.000719
    77  H    0.117352   0.000540
    78  H    0.117075  -0.000013
    79  H    0.123777  -0.000723
    80  H    0.127739   0.000772
    81  H    0.128184   0.000604
    82  H    0.126951   0.000725
    83  H    0.316403   0.011885
    84  H    0.225127  -0.010274
    85  H    0.139935   0.001092
    86  H    0.229302   0.002067
    87  H    0.178635   0.001546
    88  H    0.146312   0.000008
    89  H    0.137132   0.000127
    90  H    0.141202   0.000078
 Sum of Mulliken charges =  -0.00000   4.00000

 Dipole moment (field-independent basis, Debye):
    X=             -3.3451    Y=             -2.8806    Z=             -0.4658  Tot=              4.4390
 Quadrupole moment (field-independent basis, Debye-Ang):
   XX=           -327.6481   YY=           -292.4563   ZZ=           -264.9065
   XY=            -28.5355   XZ=            -56.4001   YZ=              9.7932

 Summary of Natural Population Analysis:

                                       Natural Population
                Natural  -----------------------------------------------
    Atom  No    Charge         Core      Valence    Rydberg      Total
 -----------------------------------------------------------------------
      C    1   -0.31852      0.99970     2.31579    0.00303     3.31852
      C    2    0.05271      0.99954     1.93840    0.00935     2.94729
      N    3   -0.23706      0.99967     2.72722    0.01016     3.73706
      C    4   -0.03274      0.99944     2.02373    0.00956     3.03274
      C    5    0.09187      0.99967     1.89669    0.01176     2.90813
      N    6   -0.18256      0.99973     2.65971    0.02312     3.68256
      C    7   -0.11273      0.99956     2.10457    0.00861     3.11273
      C    8   -0.09102      0.99955     2.08388    0.00759     3.09102
      C    9   -0.10111      0.99956     2.09379    0.00776     3.10111
      C   10   -0.08553      0.99954     2.07832    0.00767     3.08553
      C   11    0.07376      0.99947     1.91562    0.01115     2.92624
      C   12   -0.02182      0.99941     2.01260    0.00981     3.02182
      C   13    0.00253      0.99942     1.98953    0.00852     2.99747
      C   14    0.05843      0.99946     1.93136    0.01076     2.94157
      C   15   -0.31957      0.99970     2.31626    0.00360     3.31957
      C   16   -0.20684      0.99967     2.19970    0.00748     3.20684
      C   17   -0.25362      0.99963     2.24540    0.00858     3.25362
      C   18    0.38247      0.99977     1.59907    0.01869     2.61753
      O   19   -0.28651      0.99988     3.27405    0.01257     4.28651
      O   20   -0.32469      0.99978     3.30890    0.01601     4.32469
      C   21    0.05912      0.99950     1.93073    0.01065     2.94088
      C   22    0.01952      0.99945     1.97243    0.00860     2.98048
      C   23   -0.06919      0.99945     2.05920    0.01054     3.06919
      C   24    0.08504      0.99952     1.90447    0.01097     2.91496
      C   25   -0.31788      0.99970     2.31413    0.00405     3.31788
      C   26   -0.09485      0.99961     2.08608    0.00916     3.09485
      C   27   -0.20357      0.99971     2.19787    0.00599     3.20357
      C   28    0.07503      0.99950     1.91470    0.01078     2.92497
      C   29   -0.00403      0.99942     1.99588    0.00873     3.00403
      C   30   -0.04955      0.99946     2.03964    0.01046     3.04955
      C   31    0.07200      0.99950     1.91800    0.01051     2.92800
      C   32   -0.31943      0.99970     2.31621    0.00353     3.31943
      C   33   -0.09842      0.99963     2.08983    0.00896     3.09842
      C   34   -0.18935      0.99973     2.18399    0.00563     3.18935
      C   35    0.05005      0.99945     1.93954    0.01096     2.94995
      C   36   -0.00180      0.99943     1.99348    0.00889     3.00180
      C   37   -0.02313      0.99942     2.01439    0.00932     3.02313
      C   38    0.06799      0.99948     1.92160    0.01093     2.93201
      C   39   -0.32091      0.99970     2.31747    0.00374     3.32091
      C   40   -0.20956      0.99967     2.20186    0.00802     3.20956
      C   41   -0.25547      0.99963     2.24746    0.00838     3.25547
      C   42    0.37953      0.99977     1.60195    0.01875     2.62047
      O   43   -0.33131      0.99977     3.31502    0.01651     4.33131
      O   44   -0.27662      0.99988     3.26394    0.01280     4.27662
      N   45   -0.22123      0.99966     2.70050    0.02107     3.72123
      N   46   -0.20194      0.99968     2.68162    0.02064     3.70194
      N   47   -0.18758      0.99970     2.66707    0.02081     3.68758
      N   48   -0.21268      0.99969     2.69100    0.02199     3.71268
     Fe   49    2.11146      8.99436     1.86991    0.02427    10.88854
      O   50   -0.39960      0.99992     3.38943    0.01026     4.39960
      H   51    0.09676      0.00000     0.40244    0.00080     0.40324
      H   52    0.09911      0.00000     0.40019    0.00070     0.40089
      H   53    0.09950      0.00000     0.39954    0.00096     0.40050
      H   54    0.11551      0.00000     0.38367    0.00082     0.38449
      H   55    0.10728      0.00000     0.39198    0.00074     0.39272
      H   56    0.10911      0.00000     0.39010    0.00079     0.39089
      H   57    0.10502      0.00000     0.39398    0.00101     0.39498
      H   58    0.10814      0.00000     0.39108    0.00078     0.39186
      H   59    0.11248      0.00000     0.38671    0.00081     0.38752
      H   60    0.11112      0.00000     0.38822    0.00066     0.38888
      H   61    0.11336      0.00000     0.38586    0.00077     0.38664
      H   62    0.11465      0.00000     0.38464    0.00071     0.38535
      H   63    0.10988      0.00000     0.38938    0.00073     0.39012
      H   64    0.10898      0.00000     0.39024    0.00078     0.39102
      H   65    0.25411      0.00000     0.24472    0.00117     0.24589
      H   66    0.25118      0.00000     0.24766    0.00116     0.24882
      H   67    0.09922      0.00000     0.39993    0.00085     0.40078
      H   68    0.11715      0.00000     0.38217    0.00068     0.38285
      H   69    0.10875      0.00000     0.39042    0.00083     0.39125
      H   70    0.11514      0.00000     0.38403    0.00083     0.38486
      H   71    0.10171      0.00000     0.39690    0.00139     0.39829
      H   72    0.11201      0.00000     0.38720    0.00079     0.38799
      H   73    0.10990      0.00000     0.38933    0.00077     0.39010
      H   74    0.11150      0.00000     0.38777    0.00073     0.38850
      H   75    0.10379      0.00000     0.39480    0.00142     0.39621
      H   76    0.11663      0.00000     0.38241    0.00097     0.38337
      H   77    0.11016      0.00000     0.38906    0.00078     0.38984
      H   78    0.10680      0.00000     0.39258    0.00062     0.39320
      H   79    0.10584      0.00000     0.39321    0.00095     0.39416
      H   80    0.09835      0.00000     0.40093    0.00073     0.40165
      H   81    0.09475      0.00000     0.40443    0.00082     0.40525
      H   82    0.10434      0.00000     0.39473    0.00093     0.39566
      H   83    0.24470      0.00000     0.25401    0.00129     0.25530
      H   84    0.22745      0.00000     0.26875    0.00380     0.27255
      H   85    0.11580      0.00000     0.38343    0.00077     0.38420
      H   86    0.20705      0.00000     0.29219    0.00077     0.29295
      H   87    0.11498      0.00000     0.38420    0.00082     0.38502
      H   88    0.11810      0.00000     0.38145    0.00045     0.38190
      H   89    0.10992      0.00000     0.38938    0.00071     0.39008
      H   90    0.11069      0.00000     0.38860    0.00071     0.38931
 =======================================================================
   * Total *    2.00000     57.97525   127.43629    0.58846   186.00000

 Normal termination of Gaussian 16 at Mon Aug 29 05:26:18 2022.
