 Gaussian 16, Revision A.03,
 Gaussian 16:  ES64L-G16RevA.03 25-Dec-2016

 ----------------------------------------------------------------------
 # PBE1PBE/def2TZVP empiricaldispersion=GD3BJ int=(grid=ultrafine) geom
 =check pop=nbo
 ----------------------------------------------------------------------

 ----------
 1dj1_III_D
 ----------
 Structure from the checkpoint file:  "1dj1_III_D.chk"
 Charge =  1 Multiplicity = 2

                         Standard orientation:
 ---------------------------------------------------------------------
 Center     Atomic      Atomic             Coordinates (Angstroms)
 Number     Number       Type             X           Y           Z
 ---------------------------------------------------------------------
      1          6           0       -1.444174   -1.865382    5.050118
      2          6           0       -1.498607   -1.013993    3.808626
      3          7           0       -2.231865    0.139167    3.709204
      4          6           0       -0.914146   -1.175016    2.595920
      5          6           0       -2.096858    0.665164    2.503230
      6          7           0       -1.295447   -0.123387    1.805434
      7          6           0        2.393795    0.066198    0.040204
      8          6           0       -0.964645    3.543879   -0.145169
      9          6           0       -4.271036    0.109005   -0.665525
     10          6           0       -0.859581   -3.266799   -0.686226
     11          6           0        1.795281    1.358725    0.060166
     12          6           0        2.451617    2.569848    0.144195
     13          6           0        1.474970    3.574331    0.158187
     14          6           0        0.275436    2.902173    0.049059
     15          6           0        1.722805    5.077708    0.131454
     16          6           0        3.967497    2.780335    0.343882
     17          6           0        4.718878    2.872864   -0.966426
     18          6           0        6.244106    2.887923   -0.754200
     19          8           0        6.779280    3.852919   -0.214335
     20          8           0        6.941122    2.009898   -1.265120
     21          6           0       -2.218621    2.910197   -0.298711
     22          6           0       -3.444475    3.586342   -0.252847
     23          6           0       -4.411798    2.588158   -0.385848
     24          6           0       -3.712206    1.379267   -0.488668
     25          6           0       -3.569646    5.099841   -0.274923
     26          6           0       -5.763369    2.776278   -0.718439
     27          6           0       -6.471126    3.862744   -0.186844
     28          6           0       -3.660714   -1.159815   -0.853558
     29          6           0       -4.306568   -2.370728   -1.114323
     30          6           0       -3.261401   -3.295076   -1.295700
     31          6           0       -2.112699   -2.651385   -0.842603
     32          6           0       -5.718413   -2.583418   -1.718764
     33          6           0       -3.286334   -4.651230   -1.643327
     34          6           0       -4.345313   -5.619766   -1.460105
     35          6           0        0.272943   -2.701217   -0.081315
     36          6           0        1.472136   -3.393287    0.089211
     37          6           0        2.414142   -2.408311    0.397227
     38          6           0        1.795131   -1.195658    0.093209
     39          6           0        1.631787   -4.887409    0.359121
     40          6           0        3.894342   -2.679305    0.712962
     41          6           0        4.778101   -2.671847   -0.550899
     42          6           0        6.291797   -2.755547   -0.254580
     43          8           0        7.053650   -2.246969   -1.059064
     44          8           0        6.625000   -2.956546    0.903521
     45          7           0        0.478453    1.574353   -0.082442
     46          7           0       -2.396895    1.599085   -0.463145
     47          7           0       -2.328021   -1.322130   -0.745992
     48          7           0        0.484731   -1.381805   -0.148728
     49         26           0       -0.961935    0.102152   -0.216955
     50          8           0       -0.477748    0.272847   -2.254685
     51          1           0       -5.205299   -5.368004   -0.875349
     52          1           0       -4.268538   -6.587849   -1.909349
     53          1           0       -2.398038   -5.023219   -2.109648
     54          1           0       -5.752635   -3.527293   -2.221585
     55          1           0       -6.447410   -2.569846   -0.935642
     56          1           0       -5.929542   -1.799898   -2.416202
     57          1           0       -0.759198   -4.262534   -1.064823
     58          1           0        2.298994   -5.310873   -0.362276
     59          1           0        2.030394   -5.031781    1.341551
     60          1           0        0.677868   -5.366757    0.287259
     61          1           0        3.977383   -3.634822    1.187294
     62          1           0        4.247663   -1.926584    1.386368
     63          1           0        4.504155   -3.505526   -1.163135
     64          1           0        4.586771   -1.770677   -1.095129
     65          1           0        7.287470   -2.717516   -1.862502
     66          1           0        6.765811    1.719880   -2.163316
     67          1           0        4.460665    2.032018   -1.575691
     68          1           0        4.428946    3.770719   -1.471099
     69          1           0        4.358583    1.960333    0.909169
     70          1           0        4.121047    3.684710    0.894726
     71          1           0        3.461781    0.060510   -0.025170
     72          1           0        1.580523    5.445009   -0.863406
     73          1           0        1.036566    5.564133    0.792791
     74          1           0        2.725344    5.279570    0.446206
     75          1           0       -0.955689    4.613286   -0.179660
     76          1           0       -3.949384    5.412497   -1.225157
     77          1           0       -4.239972    5.413597    0.497812
     78          1           0       -2.607762    5.539676   -0.112977
     79          1           0       -6.252624    2.090049   -1.377696
     80          1           0       -7.379001    4.188159   -0.650275
     81          1           0       -6.103638    4.366872    0.682471
     82          1           0       -5.340839    0.089963   -0.657842
     83          1           0        0.066437   -0.332487   -2.763637
     84          1           0       -0.034491    0.485552   -1.430136
     85          1           0       -0.270262   -1.979601    2.307899
     86          1           0       -2.789157    0.527398    4.443168
     87          1           0       -2.554087    1.567364    2.154120
     88          1           0       -0.756440   -2.671243    4.900083
     89          1           0       -1.120089   -1.269267    5.877473
     90          1           0       -2.417328   -2.260396    5.254655
 ---------------------------------------------------------------------

 SCF Done:  E(UPBE1PBE) =  -3438.38317375     A.U. after   90 cycles

 Alpha virt. eigenvalues --    0.62350   0.62554   0.62827   0.62926   0.63104
 Alpha virt. eigenvalues --    0.63267   0.63629   0.64015   0.64630   0.64787
 Alpha virt. eigenvalues --    0.65058   0.65236   0.65448   0.65673   0.66221

  Beta  occ. eigenvalues -- -256.43519 -30.19994 -26.02729 -26.02678 -26.02379
  Beta  occ. eigenvalues --  -19.33646 -19.33087 -19.30326 -19.25590 -19.24330
  Beta  occ. eigenvalues --  -14.54779 -14.49960 -14.49258 -14.49182 -14.48743
  Beta  occ. eigenvalues --  -14.48465 -10.42549 -10.41824 -10.38492 -10.36418
  Beta  occ. eigenvalues --  -10.36211 -10.36184 -10.36151 -10.36101 -10.36038
  Beta  occ. eigenvalues --  -10.36010 -10.35972 -10.35924 -10.35822 -10.35822
  Beta  occ. eigenvalues --  -10.35643 -10.35565 -10.33716 -10.33455 -10.33181
  Beta  occ. eigenvalues --  -10.33069 -10.32979 -10.32979 -10.32891 -10.32746
  Beta  occ. eigenvalues --  -10.32592 -10.32413 -10.32397 -10.32197 -10.31874
  Beta  occ. eigenvalues --  -10.31796 -10.31732 -10.31627 -10.31388 -10.31357
  Beta  occ. eigenvalues --  -10.30974 -10.30788 -10.30780 -10.30199  -3.55205
  Beta  occ. eigenvalues --   -2.31522  -2.30704  -2.30130  -1.26220  -1.24868
  Beta  occ. eigenvalues --   -1.17048  -1.15234  -1.11748  -1.11599  -1.11065
  Beta  occ. eigenvalues --   -1.10669  -1.10176  -1.09895  -1.01379  -0.95636
  Beta  occ. eigenvalues --   -0.93928  -0.93450  -0.93329  -0.93245  -0.92869
  Beta  occ. eigenvalues --   -0.92255  -0.91092  -0.89381  -0.88304  -0.87315
  Beta  occ. eigenvalues --   -0.86982  -0.85878  -0.84216  -0.82556  -0.82376
  Beta  occ. eigenvalues --   -0.82114  -0.81440  -0.80490  -0.78981  -0.78196
  Beta  occ. eigenvalues --   -0.77678  -0.77110  -0.75087  -0.75002  -0.74815
  Beta  occ. eigenvalues --   -0.73025  -0.72648  -0.72178  -0.70639  -0.70428
  Beta  occ. eigenvalues --   -0.68971  -0.67731  -0.66973  -0.66539  -0.65630
  Beta  occ. eigenvalues --   -0.64140  -0.63757  -0.63482  -0.63335  -0.61732
  Beta  occ. eigenvalues --   -0.61707  -0.60890  -0.60487  -0.60238  -0.58979
  Beta  occ. eigenvalues --   -0.58334  -0.58090  -0.57776  -0.57430  -0.56953
  Beta  occ. eigenvalues --   -0.56509  -0.56268  -0.55993  -0.55833  -0.55526
  Beta  occ. eigenvalues --   -0.55280  -0.54868  -0.54392  -0.54132  -0.53854
  Beta  occ. eigenvalues --   -0.53765  -0.53460  -0.53174  -0.52719  -0.52568
  Beta  occ. eigenvalues --   -0.52424  -0.52348  -0.52200  -0.51750  -0.51629
  Beta  occ. eigenvalues --   -0.51502  -0.51251  -0.51160  -0.50939  -0.50693
  Beta  occ. eigenvalues --   -0.50346  -0.49956  -0.49849  -0.49023  -0.48780
  Beta  occ. eigenvalues --   -0.48431  -0.48241  -0.48163  -0.48046  -0.47701
  Beta  occ. eigenvalues --   -0.47316  -0.46686  -0.46438  -0.46202  -0.46116
  Beta  occ. eigenvalues --   -0.45537  -0.45246  -0.44500  -0.43514  -0.43139
  Beta  occ. eigenvalues --   -0.42791  -0.42701  -0.42466  -0.42112  -0.41639
  Beta  occ. eigenvalues --   -0.41523  -0.40195  -0.39874  -0.39535  -0.38300
  Beta  occ. eigenvalues --   -0.37792  -0.35830  -0.35637  -0.35191  -0.34796
  Beta  occ. eigenvalues --   -0.34297  -0.33370  -0.33045  -0.32765  -0.31786
  Beta  occ. eigenvalues --   -0.31194  -0.30676
  Beta virt. eigenvalues --   -0.25546  -0.18727  -0.18374  -0.14514  -0.11353
  Beta virt. eigenvalues --   -0.09765  -0.09572  -0.08564  -0.08516  -0.08166
  Beta virt. eigenvalues --   -0.07911  -0.06642  -0.06145  -0.05487  -0.05261

 Mulliken charges and spin densities:
               1          2
     1  C   -0.367660  -0.000311
     2  C    0.143094   0.000161
     3  N   -0.202833   0.000266
     4  C   -0.180645  -0.003517
     5  C    0.024679  -0.001771
     6  N   -0.028215   0.006859
     7  C   -0.487643   0.333277
     8  C   -0.365460   0.325706
     9  C   -0.425858   0.308502
    10  C   -0.367685   0.314599
    11  C    0.276819  -0.079683
    12  C    0.080706  -0.015381
    13  C   -0.121703   0.000383
    14  C    0.182805  -0.094319
    15  C   -0.363534  -0.000110
    16  C   -0.385626   0.001911
    17  C   -0.236517  -0.000608
    18  C    0.305029  -0.000160
    19  O   -0.327750  -0.000132
    20  O   -0.299155  -0.000012
    21  C    0.268565  -0.077318
    22  C   -0.138198   0.005388
    23  C    0.054724   0.006267
    24  C    0.255010  -0.090071
    25  C   -0.284375   0.000710
    26  C   -0.194480  -0.000314
    27  C   -0.271190   0.003986
    28  C    0.248969  -0.083376
    29  C   -0.073982   0.003766
    30  C    0.024747  -0.006153
    31  C    0.257154  -0.095761
    32  C   -0.403728  -0.000572
    33  C   -0.198187   0.019860
    34  C   -0.279856  -0.032111
    35  C    0.128825  -0.083447
    36  C   -0.034459  -0.018277
    37  C   -0.025806  -0.008087
    38  C    0.287767  -0.101878
    39  C   -0.391374   0.001495
    40  C   -0.254805   0.001244
    41  C   -0.313371  -0.000275
    42  C    0.290120  -0.000245
    43  O   -0.304726  -0.000068
    44  O   -0.303532  -0.000038
    45  N   -0.102700   0.133086
    46  N   -0.065791   0.087538
    47  N    0.012917   0.114923
    48  N   -0.071891   0.172364
    49  Fe  -0.166295   0.025121
    50  O   -0.418345  -0.021564
    51  H    0.161991   0.001292
    52  H    0.157641   0.001383
    53  H    0.125891  -0.000862
    54  H    0.166957   0.000304
    55  H    0.147219  -0.000021
    56  H    0.142562   0.000049
    57  H    0.142236  -0.015123
    58  H    0.146605  -0.000654
    59  H    0.159405  -0.000894
    60  H    0.137009   0.000202
    61  H    0.130514  -0.000021
    62  H    0.151626  -0.000007
    63  H    0.136279  -0.000021
    64  H    0.121356  -0.000108
    65  H    0.354871   0.000001
    66  H    0.345576   0.000008
    67  H    0.105971  -0.000009
    68  H    0.142236   0.000113
    69  H    0.144115  -0.000147
    70  H    0.163577  -0.000120
    71  H    0.157283  -0.014846
    72  H    0.157939  -0.000389
    73  H    0.139272   0.000387
    74  H    0.153095  -0.000017
    75  H    0.145633  -0.014352
    76  H    0.161453  -0.000649
    77  H    0.133501  -0.000346
    78  H    0.120023   0.000038
    79  H    0.137925   0.000254
    80  H    0.152867  -0.000097
    81  H    0.143657  -0.000167
    82  H    0.159353  -0.013391
    83  H    0.330990   0.004185
    84  H    0.218505   0.000054
    85  H    0.144353   0.000818
    86  H    0.244412   0.000631
    87  H    0.180374   0.000682
    88  H    0.148328  -0.000002
    89  H    0.150705   0.000014
    90  H    0.152137  -0.000026
 Sum of Mulliken charges =   1.00000   1.00000

 Dipole moment (field-independent basis, Debye):
    X=             -8.1590    Y=             -2.7368    Z=             -1.3500  Tot=              8.7110
 Quadrupole moment (field-independent basis, Debye-Ang):
   XX=           -252.3016   YY=           -230.1070   ZZ=           -248.3387
   XY=            -29.7972   XZ=            -51.3159   YZ=             12.1336

 Summary of Natural Population Analysis:

                                       Natural Population
                Natural  -----------------------------------------------
    Atom  No    Charge         Core      Valence    Rydberg      Total
 -----------------------------------------------------------------------
      C    1   -0.32031      0.99969     2.31754    0.00308     3.32031
      C    2    0.06135      0.99954     1.92979    0.00932     2.93865
      N    3   -0.23596      0.99967     2.72620    0.01009     3.73596
      C    4   -0.04227      0.99945     2.03277    0.01004     3.04227
      C    5    0.09309      0.99968     1.89748    0.00976     2.90691
      N    6   -0.18308      0.99969     2.65964    0.02376     3.68308
      C    7    0.10189      0.99955     1.89076    0.00780     2.89811
      C    8    0.11257      0.99955     1.88109    0.00679     2.88743
      C    9    0.10147      0.99956     1.89217    0.00681     2.89853
      C   10    0.10542      0.99953     1.88826    0.00679     2.89458
      C   11    0.02906      0.99947     1.96102    0.01045     2.97094
      C   12   -0.01629      0.99943     2.00727    0.00959     3.01629
      C   13    0.00349      0.99943     1.98880    0.00828     2.99651
      C   14    0.01597      0.99946     1.97370    0.01087     2.98403
      C   15   -0.32094      0.99970     2.31760    0.00364     3.32094
      C   16   -0.20830      0.99967     2.20141    0.00723     3.20830
      C   17   -0.25317      0.99963     2.24500    0.00853     3.25317
      C   18    0.38001      0.99977     1.60170    0.01853     2.61999
      O   19   -0.27811      0.99989     3.26557    0.01265     4.27811
      O   20   -0.32201      0.99978     3.30609    0.01614     4.32201
      C   21    0.02724      0.99951     1.96232    0.01093     2.97276
      C   22    0.01362      0.99946     1.97852    0.00840     2.98638
      C   23   -0.04560      0.99945     2.03611    0.01004     3.04560
      C   24    0.03295      0.99953     1.95688    0.01064     2.96705
      C   25   -0.31817      0.99970     2.31212    0.00634     3.31817
      C   26   -0.11188      0.99961     2.10320    0.00906     3.11188
      C   27   -0.16683      0.99971     2.16161    0.00552     3.16683
      C   28    0.02771      0.99950     1.96292    0.00986     2.97229
      C   29    0.00913      0.99943     1.98307    0.00837     2.99087
      C   30   -0.05027      0.99946     2.04057    0.01024     3.05027
      C   31    0.03138      0.99950     1.95867    0.01045     2.96862
      C   32   -0.32055      0.99969     2.31735    0.00351     3.32055
      C   33   -0.10045      0.99963     2.09203    0.00878     3.10045
      C   34   -0.18307      0.99973     2.17803    0.00531     3.18307
      C   35    0.01533      0.99945     1.97417    0.01105     2.98467
      C   36   -0.01517      0.99944     2.00701    0.00872     3.01517
      C   37   -0.00948      0.99943     2.00080    0.00924     3.00948
      C   38    0.00973      0.99949     1.98018    0.01060     2.99027
      C   39   -0.32068      0.99969     2.31727    0.00372     3.32068
      C   40   -0.21230      0.99967     2.20473    0.00790     3.21230
      C   41   -0.25416      0.99963     2.24634    0.00819     3.25416
      C   42    0.37977      0.99977     1.60195    0.01851     2.62023
      O   43   -0.32923      0.99977     3.31295    0.01651     4.32923
      O   44   -0.27129      0.99988     3.25861    0.01279     4.27129
      N   45   -0.13321      0.99962     2.61170    0.02189     3.63321
      N   46   -0.14664      0.99965     2.62311    0.02389     3.64664
      N   47   -0.11375      0.99966     2.59093    0.02316     3.61375
      N   48   -0.09909      0.99966     2.57463    0.02481     3.59909
     Fe   49    0.15323      8.99466     3.83194    0.02016    12.84677
      O   50   -0.41611      0.99991     3.40740    0.00880     4.41611
      H   51    0.09977      0.00000     0.39946    0.00077     0.40023
      H   52    0.10565      0.00000     0.39370    0.00065     0.39435
      H   53    0.10143      0.00000     0.39767    0.00089     0.39857
      H   54    0.12001      0.00000     0.37923    0.00076     0.37999
      H   55    0.11252      0.00000     0.38682    0.00066     0.38748
      H   56    0.11185      0.00000     0.38748    0.00067     0.38815
      H   57    0.10740      0.00000     0.39163    0.00097     0.39260
      H   58    0.11385      0.00000     0.38544    0.00071     0.38615
      H   59    0.11757      0.00000     0.38166    0.00076     0.38243
      H   60    0.11123      0.00000     0.38819    0.00058     0.38877
      H   61    0.11883      0.00000     0.38042    0.00075     0.38117
      H   62    0.11651      0.00000     0.38281    0.00068     0.38349
      H   63    0.11184      0.00000     0.38746    0.00070     0.38816
      H   64    0.10551      0.00000     0.39374    0.00075     0.39449
      H   65    0.25662      0.00000     0.24228    0.00110     0.24338
      H   66    0.25198      0.00000     0.24689    0.00113     0.24802
      H   67    0.09690      0.00000     0.40229    0.00082     0.40310
      H   68    0.11947      0.00000     0.37988    0.00065     0.38053
      H   69    0.10938      0.00000     0.38983    0.00078     0.39062
      H   70    0.12033      0.00000     0.37885    0.00082     0.37967
      H   71    0.10441      0.00000     0.39413    0.00145     0.39559
      H   72    0.11584      0.00000     0.38345    0.00070     0.38416
      H   73    0.11260      0.00000     0.38673    0.00067     0.38740
      H   74    0.11761      0.00000     0.38170    0.00069     0.38239
      H   75    0.10686      0.00000     0.39243    0.00071     0.39314
      H   76    0.12172      0.00000     0.37747    0.00081     0.37828
      H   77    0.11531      0.00000     0.38410    0.00059     0.38469
      H   78    0.10695      0.00000     0.39259    0.00046     0.39305
      H   79    0.10967      0.00000     0.38951    0.00082     0.39033
      H   80    0.10450      0.00000     0.39484    0.00066     0.39550
      H   81    0.09657      0.00000     0.40264    0.00079     0.40343
      H   82    0.10635      0.00000     0.39276    0.00089     0.39365
      H   83    0.24584      0.00000     0.25288    0.00128     0.25416
      H   84    0.23325      0.00000     0.26334    0.00341     0.26675
      H   85    0.11389      0.00000     0.38532    0.00079     0.38611
      H   86    0.21163      0.00000     0.28758    0.00079     0.28837
      H   87    0.11276      0.00000     0.38630    0.00094     0.38724
      H   88    0.11978      0.00000     0.37978    0.00045     0.38022
      H   89    0.11487      0.00000     0.38448    0.00065     0.38513
      H   90    0.11492      0.00000     0.38443    0.00065     0.38508
 =======================================================================
   * Total *    1.00000     57.97545   128.44318    0.58137   187.00000

 Normal termination of Gaussian 16 at Sun Aug 28 21:16:21 2022.
