 Gaussian 16, Revision A.03,
 Gaussian 16:  ES64L-G16RevA.03 25-Dec-2016

 ----------------------------------------------------------------------
 # PBE1PBE/def2TZVP empiricaldispersion=GD3BJ scf=maxcycle=999 geom=che
 ck pop=nbo guess=read
 ----------------------------------------------------------------------

 ---------
 1a6k_II_Q
 ---------
 Structure from the checkpoint file:  "1a6k_II_Q.chk"
 Charge =  0 Multiplicity = 5

                         Standard orientation:
 ---------------------------------------------------------------------
 Center     Atomic      Atomic             Coordinates (Angstroms)
 Number     Number       Type             X           Y           Z
 ---------------------------------------------------------------------
      1          6           0       -1.628464   -0.035347    5.376603
      2          6           0       -1.246317   -0.363958    3.971197
      3          7           0       -0.384630   -1.372420    3.687947
      4          6           0       -1.530114    0.272890    2.789900
      5          6           0       -0.188023   -1.369426    2.368862
      6          7           0       -0.866560   -0.399928    1.778997
      7         26           0       -0.752908    0.099032   -0.294427
      8          6           0        2.609922   -0.530376   -0.320170
      9          6           0       -1.399339   -3.153495   -1.159378
     10          6           0       -4.109755    0.760360   -0.488845
     11          6           0       -0.131812    3.366302    0.296355
     12          7           0        0.357060   -1.523923   -0.757296
     13          6           0        1.763245   -1.623084   -0.614916
     14          6           0        2.167268   -2.970271   -0.830887
     15          6           0        1.040221   -3.721774   -1.113479
     16          6           0       -0.041543   -2.810355   -1.005407
     17          6           0        0.908708   -5.186288   -1.462268
     18          6           0        3.600327   -3.496641   -0.723195
     19          6           0        3.766799   -4.342399    0.558866
     20          6           0        3.498716   -3.508402    1.828964
     21          8           0        2.561911   -3.891291    2.549556
     22          8           0        4.223241   -2.493865    2.025092
     23          7           0       -2.424873   -0.976527   -0.779977
     24          6           0       -2.507206   -2.337492   -1.045260
     25          6           0       -3.864746   -2.736750   -1.200029
     26          6           0       -4.656428   -1.656828   -1.028466
     27          6           0       -3.750216   -0.531330   -0.712240
     28          6           0       -4.296299   -4.172073   -1.499493
     29          6           0       -6.142090   -1.512924   -1.147596
     30          6           0       -6.850195   -2.199454   -2.017639
     31          7           0       -1.916101    1.743657   -0.045526
     32          6           0       -3.292748    1.867833   -0.219508
     33          6           0       -3.702619    3.214792   -0.147178
     34          6           0       -2.574123    3.953948    0.056811
     35          6           0       -1.459253    3.052842    0.083881
     36          6           0       -5.124967    3.717419   -0.310928
     37          6           0       -2.374798    5.437669    0.046976
     38          6           0       -3.291499    6.356809    0.105326
     39          7           0        0.922273    1.213805   -0.020313
     40          6           0        0.940878    2.547587    0.259988
     41          6           0        2.365053    2.946215    0.330286
     42          6           0        3.107949    1.901220    0.141689
     43          6           0        2.254263    0.761191   -0.056825
     44          6           0        2.810032    4.410884    0.604205
     45          6           0        4.636883    1.849962   -0.014667
     46          6           0        5.048924    2.203065   -1.464035
     47          6           0        6.518479    2.258581   -1.689718
     48          8           0        7.129012    3.301571   -1.411168
     49          8           0        7.084536    1.339938   -2.272002
     50          8           0       -0.637587    0.758156   -2.314977
     51          1           0       -1.766485    1.021518    5.470866
     52          1           0       -2.539967   -0.537648    5.625110
     53          1           0       -0.852808   -0.354411    6.041025
     54          1           0       -2.152704    1.135001    2.671386
     55          1           0        0.027266   -2.002032    4.346681
     56          1           0        0.440301   -2.064701    1.852432
     57          1           0        0.148602    0.923725   -2.840423
     58          1           0       -0.386698    0.347295   -1.484406
     59          1           0       -6.450282   -2.406860   -2.988182
     60          1           0       -7.826204   -2.550589   -1.754942
     61          1           0       -6.646479   -0.825879   -0.500711
     62          1           0       -3.607393   -4.615395   -2.187805
     63          1           0       -4.307246   -4.738027   -0.591486
     64          1           0       -5.276374   -4.167621   -1.928833
     65          1           0       -1.597399   -4.178253   -1.395055
     66          1           0        1.722895   -5.477324   -2.092583
     67          1           0        0.925886   -5.769483   -0.565335
     68          1           0       -0.015774   -5.348995   -1.975843
     69          1           0       -5.160500    0.959493   -0.523221
     70          1           0       -5.362917    3.781600   -1.352159
     71          1           0       -5.800169    3.039537    0.168111
     72          1           0       -5.214785    4.685546    0.135795
     73          1           0       -3.561369    6.899979   -0.776170
     74          1           0       -3.776465    6.570483    1.034870
     75          1           0       -1.362953    5.780033   -0.015130
     76          1           0        0.073780    4.392487    0.519009
     77          1           0        2.818135    4.958964   -0.314731
     78          1           0        2.125910    4.869694    1.287119
     79          1           0        3.792224    4.411782    1.028700
     80          1           0        5.083889    2.550382    0.659497
     81          1           0        4.982438    0.864866    0.220020
     82          1           0        4.632863    1.469395   -2.122458
     83          1           0        4.632222    3.157017   -1.711492
     84          1           0        7.573877    1.512728   -3.079645
     85          1           0        3.658740   -0.741367   -0.301077
     86          1           0        3.819598   -4.102524   -1.577435
     87          1           0        4.279191   -2.670153   -0.692197
     88          1           0        4.765215   -4.725285    0.597124
     89          1           0        3.079487   -5.161879    0.527997
     90          1           0        4.708308   -2.102074    1.295154
 ---------------------------------------------------------------------

 SCF Done:  E(UPBE1PBE) =  -3438.50123847     A.U. after    1 cycles

 Alpha virt. eigenvalues --    0.71316   0.71411   0.71768   0.71992   0.72401
 Alpha virt. eigenvalues --    0.72996   0.73129   0.73344   0.73665   0.74059
 Alpha virt. eigenvalues --    0.74177   0.74386   0.74921   0.75142   0.75933

  Beta  occ. eigenvalues -- -256.33069 -30.05819 -25.89443 -25.89094 -25.88465
  Beta  occ. eigenvalues --  -19.28064 -19.26421 -19.18838 -19.17717 -19.17680
  Beta  occ. eigenvalues --  -14.44382 -14.38181 -14.36652 -14.36429 -14.36145
  Beta  occ. eigenvalues --  -14.36052 -10.36323 -10.35041 -10.27382 -10.25785
  Beta  occ. eigenvalues --  -10.25694 -10.25301 -10.24718 -10.24716 -10.24619
  Beta  occ. eigenvalues --  -10.24577 -10.24521 -10.24472 -10.24311 -10.23972
  Beta  occ. eigenvalues --  -10.23944 -10.23393 -10.23322 -10.22996 -10.22886
  Beta  occ. eigenvalues --  -10.22819 -10.22763 -10.22669 -10.22586 -10.22583
  Beta  occ. eigenvalues --  -10.22565 -10.22442 -10.22409 -10.22272 -10.22027
  Beta  occ. eigenvalues --  -10.21958 -10.21941 -10.21564 -10.21531 -10.21300
  Beta  occ. eigenvalues --  -10.20688 -10.20683 -10.20548 -10.20051  -3.37642
  Beta  occ. eigenvalues --   -2.14082  -2.11953  -2.11739  -1.18709  -1.17619
  Beta  occ. eigenvalues --   -1.06002  -1.04244  -1.02995  -1.02721  -0.97468
  Beta  occ. eigenvalues --   -0.96586  -0.96331  -0.95291  -0.90832  -0.84661
  Beta  occ. eigenvalues --   -0.84390  -0.83427  -0.82807  -0.82480  -0.81325
  Beta  occ. eigenvalues --   -0.80839  -0.80816  -0.79715  -0.79182  -0.77929
  Beta  occ. eigenvalues --   -0.77234  -0.75598  -0.74518  -0.73260  -0.72206
  Beta  occ. eigenvalues --   -0.72117  -0.71232  -0.70709  -0.70472  -0.69443
  Beta  occ. eigenvalues --   -0.67684  -0.66788  -0.66185  -0.65415  -0.64519
  Beta  occ. eigenvalues --   -0.61929  -0.61225  -0.60424  -0.59793  -0.57644
  Beta  occ. eigenvalues --   -0.57290  -0.56810  -0.55947  -0.55193  -0.54946
  Beta  occ. eigenvalues --   -0.54088  -0.53745  -0.52723  -0.52585  -0.52127
  Beta  occ. eigenvalues --   -0.51952  -0.51239  -0.50595  -0.49858  -0.49576
  Beta  occ. eigenvalues --   -0.49215  -0.48938  -0.48377  -0.47811  -0.47512
  Beta  occ. eigenvalues --   -0.46484  -0.46362  -0.45834  -0.45760  -0.45512
  Beta  occ. eigenvalues --   -0.44921  -0.44671  -0.44395  -0.44021  -0.43912
  Beta  occ. eigenvalues --   -0.43834  -0.43561  -0.43310  -0.43235  -0.43008
  Beta  occ. eigenvalues --   -0.42749  -0.42676  -0.42548  -0.42169  -0.41985
  Beta  occ. eigenvalues --   -0.41606  -0.41549  -0.41079  -0.40684  -0.40614
  Beta  occ. eigenvalues --   -0.40362  -0.39918  -0.39671  -0.39413  -0.39007
  Beta  occ. eigenvalues --   -0.38800  -0.38630  -0.38180  -0.38168  -0.37913
  Beta  occ. eigenvalues --   -0.37811  -0.37220  -0.36889  -0.36610  -0.36153
  Beta  occ. eigenvalues --   -0.36037  -0.35556  -0.34570  -0.33904  -0.33252
  Beta  occ. eigenvalues --   -0.33176  -0.33048  -0.32783  -0.31873  -0.31477
  Beta  occ. eigenvalues --   -0.30428  -0.29407  -0.28956  -0.28851  -0.28299
  Beta  occ. eigenvalues --   -0.27933  -0.27139  -0.25873  -0.25324  -0.24198
  Beta  occ. eigenvalues --   -0.23746  -0.22535  -0.19900  -0.19289  -0.18542
  Beta  occ. eigenvalues --   -0.17357
  Beta virt. eigenvalues --   -0.09482  -0.07017  -0.05826  -0.02748  -0.02003
  Beta virt. eigenvalues --   -0.00951  -0.00797  -0.00512   0.00389   0.00903
  Beta virt. eigenvalues --    0.02205   0.03001   0.03596   0.03815   0.04299

 Mulliken charges and spin densities:
               1          2
     1  C   -0.383162   0.000841
     2  C    0.170997   0.003186
     3  N   -0.221820   0.001307
     4  C   -0.212256   0.002791
     5  C   -0.003269   0.004963
     6  N   -0.088865   0.032914
     7  Fe   0.034690   3.732279
     8  C   -0.476956  -0.020174
     9  C   -0.490190  -0.016660
    10  C   -0.480335  -0.022447
    11  C   -0.459714  -0.007552
    12  N   -0.070182   0.018724
    13  C    0.283359   0.026062
    14  C   -0.003750  -0.009404
    15  C   -0.052698   0.019019
    16  C    0.317646   0.003608
    17  C   -0.418158  -0.000297
    18  C   -0.421420   0.001721
    19  C   -0.183740  -0.000357
    20  C    0.293899   0.000030
    21  O   -0.377203   0.000042
    22  O   -0.275860  -0.000011
    23  N   -0.054843   0.008531
    24  C    0.252095   0.005302
    25  C   -0.105523   0.014597
    26  C    0.038272  -0.003831
    27  C    0.245738   0.023526
    28  C   -0.376227  -0.000284
    29  C   -0.217289   0.001511
    30  C   -0.311623  -0.000754
    31  N   -0.114244   0.024400
    32  C    0.289716   0.022564
    33  C   -0.081409  -0.002915
    34  C   -0.005298   0.009866
    35  C    0.271956  -0.003978
    36  C   -0.378500   0.001100
    37  C   -0.108422   0.018912
    38  C   -0.410094  -0.016756
    39  N   -0.038380   0.026158
    40  C    0.222822  -0.003280
    41  C   -0.070306   0.014059
    42  C   -0.010736  -0.003799
    43  C    0.243217   0.023049
    44  C   -0.399536  -0.000119
    45  C   -0.344646   0.001558
    46  C   -0.147153  -0.000462
    47  C    0.261081  -0.000032
    48  O   -0.362769   0.000018
    49  O   -0.333094  -0.000004
    50  O   -0.457286   0.079247
    51  H    0.146136  -0.000004
    52  H    0.145597   0.000081
    53  H    0.123489   0.000128
    54  H    0.145353   0.000883
    55  H    0.243704   0.001021
    56  H    0.207317   0.000493
    57  H    0.313826   0.014048
    58  H    0.191117  -0.031096
    59  H    0.145381   0.000057
    60  H    0.131148  -0.000027
    61  H    0.118027  -0.000336
    62  H    0.126134   0.000153
    63  H    0.138354   0.000553
    64  H    0.142280   0.000432
    65  H    0.099637   0.000210
    66  H    0.131620   0.000499
    67  H    0.152252   0.000802
    68  H    0.134936   0.000123
    69  H    0.100569   0.000606
    70  H    0.140121  -0.000267
    71  H    0.128741  -0.000223
    72  H    0.145274   0.000232
    73  H    0.145355   0.001938
    74  H    0.145468   0.001863
    75  H    0.122225  -0.001595
    76  H    0.095380  -0.000339
    77  H    0.145425   0.000453
    78  H    0.137267   0.000126
    79  H    0.137609   0.000434
    80  H    0.137991   0.000001
    81  H    0.100396  -0.000052
    82  H    0.112463   0.000097
    83  H    0.137813   0.000021
    84  H    0.359514  -0.000001
    85  H    0.033823   0.000329
    86  H    0.131714  -0.000256
    87  H    0.142238  -0.000101
    88  H    0.129121  -0.000081
    89  H    0.120168   0.000022
    90  H    0.336487   0.000005
 Sum of Mulliken charges =  -0.00000   4.00000

 Dipole moment (field-independent basis, Debye):
    X=              2.2476    Y=             -3.5507    Z=              0.5460  Tot=              4.2376
 Quadrupole moment (field-independent basis, Debye-Ang):
   XX=           -283.6985   YY=           -296.3428   ZZ=           -277.5968
   XY=            -20.0813   XZ=            -24.3733   YZ=              8.2948

 Summary of Natural Population Analysis:

                                       Natural Population
                Natural  -----------------------------------------------
    Atom  No    Charge         Core      Valence    Rydberg      Total
 -----------------------------------------------------------------------
      C    1   -0.31902      0.99970     2.31613    0.00319     3.31902
      C    2    0.05186      0.99959     1.93921    0.00935     2.94814
      N    3   -0.23886      0.99967     2.72876    0.01043     3.73886
      C    4   -0.03993      0.99948     2.03107    0.00938     3.03993
      C    5    0.09867      0.99968     1.89059    0.01105     2.90133
      N    6   -0.17836      0.99974     2.65574    0.02288     3.67836
     Fe    7    2.08273      8.98528     1.91043    0.02156    10.91727
      C    8   -0.12834      0.99948     2.12022    0.00864     3.12834
      C    9   -0.10162      0.99951     2.09457    0.00753     3.10162
      C   10   -0.11632      0.99948     2.10901    0.00783     3.11632
      C   11   -0.11818      0.99945     2.11062    0.00811     3.11818
      N   12   -0.21483      0.99971     2.69435    0.02077     3.71483
      C   13    0.07905      0.99950     1.91034    0.01111     2.92095
      C   14   -0.03692      0.99944     2.02760    0.00988     3.03692
      C   15   -0.00137      0.99944     1.99328    0.00865     3.00137
      C   16    0.06589      0.99951     1.92428    0.01032     2.93411
      C   17   -0.31919      0.99970     2.31566    0.00384     3.31919
      C   18   -0.20623      0.99967     2.19932    0.00724     3.20623
      C   19   -0.25409      0.99964     2.24684    0.00761     3.25409
      C   20    0.38996      0.99976     1.59255    0.01774     2.61004
      O   21   -0.29801      0.99989     3.28580    0.01232     4.29801
      O   22   -0.31833      0.99981     3.30352    0.01500     4.31833
      N   23   -0.19338      0.99973     2.67471    0.01894     3.69338
      C   24    0.06643      0.99950     1.92427    0.00980     2.93357
      C   25    0.01038      0.99939     1.98150    0.00873     2.98962
      C   26   -0.04522      0.99941     2.03565    0.01016     3.04522
      C   27    0.09837      0.99952     1.89211    0.01000     2.90163
      C   28   -0.32001      0.99970     2.31667    0.00365     3.32001
      C   29   -0.09894      0.99955     2.08961    0.00978     3.09894
      C   30   -0.19901      0.99958     2.19039    0.00904     3.19901
      N   31   -0.19523      0.99974     2.67583    0.01967     3.69523
      C   32    0.08598      0.99951     1.90432    0.01018     2.91402
      C   33   -0.00755      0.99940     1.99911    0.00904     3.00755
      C   34   -0.04063      0.99940     2.03102    0.01021     3.04063
      C   35    0.08221      0.99953     1.90841    0.00986     2.91779
      C   36   -0.32053      0.99970     2.31695    0.00388     3.32053
      C   37   -0.07697      0.99953     2.06608    0.01136     3.07697
      C   38   -0.22930      0.99955     2.21702    0.01273     3.22930
      N   39   -0.20205      0.99971     2.68297    0.01938     3.70205
      C   40    0.07488      0.99951     1.91566    0.00995     2.92512
      C   41    0.00962      0.99928     1.98229    0.00881     2.99038
      C   42   -0.03428      0.99925     2.02512    0.00991     3.03428
      C   43    0.08429      0.99950     1.90552    0.01070     2.91571
      C   44   -0.32005      0.99970     2.31681    0.00354     3.32005
      C   45   -0.19832      0.99967     2.19217    0.00648     3.19832
      C   46   -0.24970      0.99962     2.24142    0.00867     3.24970
      C   47    0.37911      0.99973     1.60201    0.01915     2.62089
      O   48   -0.29699      0.99989     3.28502    0.01208     4.29699
      O   49   -0.33511      0.99978     3.32064    0.01470     4.33511
      O   50   -0.35236      0.99993     3.34371    0.00872     4.35236
      H   51    0.11649      0.00000     0.38299    0.00051     0.38351
      H   52    0.11191      0.00000     0.38739    0.00070     0.38809
      H   53    0.10767      0.00000     0.39166    0.00067     0.39233
      H   54    0.11409      0.00000     0.38524    0.00067     0.38591
      H   55    0.21271      0.00000     0.28646    0.00084     0.28729
      H   56    0.11487      0.00000     0.38424    0.00089     0.38513
      H   57    0.24056      0.00000     0.25778    0.00165     0.25944
      H   58    0.17429      0.00000     0.32175    0.00396     0.32571
      H   59    0.10000      0.00000     0.39902    0.00098     0.40000
      H   60    0.09992      0.00000     0.39927    0.00082     0.40008
      H   61    0.10196      0.00000     0.39691    0.00113     0.39804
      H   62    0.10837      0.00000     0.39094    0.00070     0.39163
      H   63    0.11095      0.00000     0.38824    0.00081     0.38905
      H   64    0.11599      0.00000     0.38323    0.00078     0.38401
      H   65    0.10379      0.00000     0.39482    0.00139     0.39621
      H   66    0.10930      0.00000     0.38985    0.00085     0.39070
      H   67    0.11271      0.00000     0.38641    0.00089     0.38729
      H   68    0.11155      0.00000     0.38780    0.00065     0.38845
      H   69    0.10658      0.00000     0.39234    0.00108     0.39342
      H   70    0.11200      0.00000     0.38705    0.00095     0.38800
      H   71    0.11015      0.00000     0.38918    0.00066     0.38985
      H   72    0.11679      0.00000     0.38212    0.00110     0.38321
      H   73    0.10509      0.00000     0.39372    0.00119     0.39491
      H   74    0.10219      0.00000     0.39628    0.00153     0.39781
      H   75    0.10041      0.00000     0.39816    0.00143     0.39959
      H   76    0.10657      0.00000     0.39232    0.00111     0.39343
      H   77    0.11104      0.00000     0.38821    0.00075     0.38896
      H   78    0.11019      0.00000     0.38917    0.00064     0.38981
      H   79    0.11032      0.00000     0.38891    0.00077     0.38968
      H   80    0.11390      0.00000     0.38520    0.00090     0.38610
      H   81    0.10063      0.00000     0.39859    0.00078     0.39937
      H   82    0.10822      0.00000     0.39105    0.00073     0.39178
      H   83    0.12181      0.00000     0.37756    0.00063     0.37819
      H   84    0.26002      0.00000     0.23867    0.00130     0.23998
      H   85    0.09531      0.00000     0.40274    0.00195     0.40469
      H   86    0.11403      0.00000     0.38502    0.00095     0.38597
      H   87    0.09537      0.00000     0.40376    0.00088     0.40463
      H   88    0.10875      0.00000     0.39055    0.00071     0.39125
      H   89    0.11755      0.00000     0.38172    0.00073     0.38245
      H   90    0.25178      0.00000     0.24712    0.00110     0.24822
 =======================================================================
   * Total *    2.00000     57.96541   127.45033    0.58426   186.00000

 Normal termination of Gaussian 16 at Mon Nov  7 11:50:27 2022.
