 Gaussian 16, Revision A.03,
 Gaussian 16:  ES64L-G16RevA.03 25-Dec-2016

 ----------------------------------------------------------------------
 # PBE1PBE/def2TZVP empiricaldispersion=GD3BJ scf=maxcycle=999 geom=che
 ck pop=nbo guess=read
 ----------------------------------------------------------------------

 ----------
 1nsi_III_D
 ----------
 Structure from the checkpoint file:  "1nsi_III_D.chk"
 Charge =  1 Multiplicity = 2

                         Standard orientation:
 ---------------------------------------------------------------------
 Center     Atomic      Atomic             Coordinates (Angstroms)
 Number     Number       Type             X           Y           Z
 ---------------------------------------------------------------------
      1          6           0        0.482793    0.900315    3.602364
      2         16           0        1.453364   -0.179138    2.552631
      3          6           0       -2.286643   -0.070617    0.721968
      4          6           0        1.114024   -3.446392    0.402323
      5          6           0        4.145897   -0.099652   -1.042394
      6          6           0        1.008312    3.318595    0.221160
      7          6           0       -1.649705   -1.272704    0.627219
      8          6           0       -2.357679   -2.525856    0.569728
      9          6           0       -1.395731   -3.488733    0.607133
     10          6           0       -0.107914   -2.810871    0.587063
     11          6           0       -1.630996   -4.998196    0.667829
     12          6           0       -3.846021   -2.747069    0.310651
     13          6           0       -4.324452   -2.284257   -1.070039
     14          6           0       -5.716677   -2.798965   -1.424469
     15          8           0       -6.230844   -3.673127   -0.696361
     16          8           0       -6.295988   -2.335664   -2.432468
     17          6           0        2.313421   -2.821186    0.100693
     18          6           0        3.533980   -3.501969   -0.313198
     19          6           0        4.370816   -2.553825   -0.748418
     20          6           0        3.675950   -1.291885   -0.605551
     21          6           0        3.847644   -4.975579   -0.232980
     22          6           0        5.609250   -2.790811   -1.275369
     23          6           0        6.756966   -2.350939   -0.705118
     24          6           0        3.518488    1.110306   -0.861828
     25          6           0        4.124278    2.383378   -1.211913
     26          6           0        3.256838    3.345159   -0.803906
     27          6           0        2.137205    2.657317   -0.210701
     28          6           0        5.489191    2.554719   -1.849032
     29          6           0        3.314811    4.724424   -0.886558
     30          6           0        4.511535    5.345286   -1.024218
     31          6           0       -0.148089    2.687440    0.585216
     32          6           0       -1.424106    3.365964    0.717924
     33          6           0       -2.349624    2.407951    0.693386
     34          6           0       -1.659275    1.139075    0.665085
     35          6           0       -1.692418    4.841866    0.936089
     36          6           0       -3.831104    2.638570    0.581210
     37          6           0       -4.393340    2.381011   -0.812257
     38          6           0       -5.895274    2.559035   -0.869957
     39          8           0       -6.456653    3.115721    0.091491
     40          8           0       -6.521448    2.140493   -1.866221
     41          7           0       -0.275502   -1.448508    0.589689
     42          7           0        2.433301   -1.448847   -0.036151
     43          7           0        2.305392    1.274170   -0.230379
     44          7           0       -0.283645    1.300242    0.593228
     45         26           0        1.133022   -0.075088    0.368487
     46          1           0       -0.558351    0.726770    3.426860
     47          1           0        0.709992    0.698764    4.628355
     48          1           0        0.717022    1.920163    3.378874
     49          1           0        2.329011   -1.007490    3.065639
     50          1           0       -7.322996    3.513134   -0.023019
     51          1           0       -3.937433    3.061554   -1.500668
     52          1           0       -4.152010    1.380031   -1.103289
     53          1           0       -4.329444    1.993063    1.273943
     54          1           0       -4.038897    3.653237    0.849858
     55          1           0       -7.181609   -1.973756   -2.353111
     56          1           0       -4.338861   -1.214502   -1.087830
     57          1           0       -3.631684   -2.631511   -1.807865
     58          1           0       -4.055042   -3.791869    0.408644
     59          1           0       -4.401729   -2.217924    1.056369
     60          1           0       -3.349012   -0.076871    0.849384
     61          1           0       -2.488086   -5.249558    0.078664
     62          1           0       -0.772388   -5.508698    0.284320
     63          1           0       -1.797167   -5.292734    1.682981
     64          1           0       -2.702980    4.976453    1.260975
     65          1           0       -1.024668    5.219312    1.682108
     66          1           0       -1.538999    5.371619    0.019179
     67          1           0        1.038583    4.386832    0.274585
     68          1           0        1.130220   -4.511647    0.501664
     69          1           0        3.136502   -5.523799   -0.814901
     70          1           0        4.831900   -5.151979   -0.613797
     71          1           0        3.796977   -5.296032    0.786649
     72          1           0        5.600975    3.563818   -2.186851
     73          1           0        6.249182    2.333354   -1.129094
     74          1           0        5.580774    1.887918   -2.680830
     75          1           0        5.077467   -0.099049   -1.568776
     76          1           0        6.726243   -1.569445    0.025103
     77          1           0        7.694028   -2.785069   -0.985019
     78          1           0        5.675925   -3.351951   -2.183981
     79          1           0        2.414791    5.301366   -0.841817
     80          1           0        4.576460    6.409054   -0.928914
     81          1           0        5.391483    4.771722   -1.228215
 ---------------------------------------------------------------------

 SCF Done:  E(UPBE1PBE) =  -3535.28026422     A.U. after    1 cycles
 SCF Done:  E(UPBE1PBE) =  -3535.28026632     A.U. after 1000 cycles
 Error termination via Lnk1e in /afs/math/software/gaussian/g16.A03/g16/l502.exe at Wed Dec  7 14:01:56 2022.

 Alpha virt. eigenvalues --    0.25677   0.25718   0.26024   0.26187   0.26557
 Alpha virt. eigenvalues --    0.26969   0.27381   0.27672   0.27839   0.27950
 Alpha virt. eigenvalues --    0.28235   0.28430   0.28666   0.28799   0.29257

  Beta  occ. eigenvalues -- -256.50256 -89.17226 -30.26166 -26.09360 -26.08780
  Beta  occ. eigenvalues --  -26.08598 -19.34852 -19.32452 -19.25165 -19.24926
  Beta  occ. eigenvalues --  -14.51821 -14.51516 -14.51250 -14.51217 -10.43222
  Beta  occ. eigenvalues --  -10.42517 -10.37599 -10.36968 -10.36818 -10.36722
  Beta  occ. eigenvalues --  -10.36656 -10.36625 -10.36564 -10.36478 -10.36459
  Beta  occ. eigenvalues --  -10.34348 -10.34040 -10.33791 -10.33724 -10.33507
  Beta  occ. eigenvalues --  -10.33437 -10.33343 -10.33235 -10.32918 -10.32822
  Beta  occ. eigenvalues --  -10.32744 -10.32157 -10.32116 -10.32063 -10.32026
  Beta  occ. eigenvalues --  -10.31700 -10.31443 -10.31359 -10.31300 -10.31273
  Beta  occ. eigenvalues --  -10.31052 -10.30903 -10.30556 -10.30487  -8.15338
  Beta  occ. eigenvalues --   -6.08979  -6.08784  -6.08131  -3.58607  -2.34830
  Beta  occ. eigenvalues --   -2.33647  -2.32819  -1.25594  -1.23406  -1.10979
  Beta  occ. eigenvalues --   -1.10084  -1.09784  -1.09745  -1.09584  -1.08560
  Beta  occ. eigenvalues --   -0.96389  -0.95713  -0.95267  -0.95057  -0.94713
  Beta  occ. eigenvalues --   -0.93534  -0.93389  -0.92717  -0.90066  -0.88717
  Beta  occ. eigenvalues --   -0.88282  -0.87983  -0.87392  -0.84805  -0.83051
  Beta  occ. eigenvalues --   -0.82797  -0.82244  -0.81407  -0.80458  -0.79581
  Beta  occ. eigenvalues --   -0.78808  -0.77446  -0.77098  -0.75117  -0.73581
  Beta  occ. eigenvalues --   -0.72952  -0.72585  -0.70849  -0.70090  -0.67063
  Beta  occ. eigenvalues --   -0.66608  -0.66105  -0.65166  -0.63811  -0.63421
  Beta  occ. eigenvalues --   -0.63017  -0.61527  -0.61410  -0.61109  -0.60328
  Beta  occ. eigenvalues --   -0.60112  -0.59943  -0.59264  -0.58816  -0.58299
  Beta  occ. eigenvalues --   -0.57802  -0.57638  -0.57547  -0.57263  -0.56438
  Beta  occ. eigenvalues --   -0.56256  -0.56048  -0.55558  -0.55342  -0.55229
  Beta  occ. eigenvalues --   -0.54830  -0.54518  -0.54246  -0.53889  -0.53420
  Beta  occ. eigenvalues --   -0.53297  -0.52736  -0.52298  -0.52234  -0.52173
  Beta  occ. eigenvalues --   -0.51920  -0.51814  -0.51693  -0.51107  -0.50700
  Beta  occ. eigenvalues --   -0.50523  -0.50066  -0.49836  -0.49249  -0.49151
  Beta  occ. eigenvalues --   -0.48659  -0.48518  -0.48035  -0.47954  -0.47695
  Beta  occ. eigenvalues --   -0.47467  -0.47006  -0.46536  -0.46207  -0.45875
  Beta  occ. eigenvalues --   -0.45566  -0.45267  -0.44714  -0.44572  -0.43771
  Beta  occ. eigenvalues --   -0.42765  -0.42359  -0.41222  -0.40525  -0.40077
  Beta  occ. eigenvalues --   -0.39968  -0.39614  -0.38951  -0.37782  -0.36983
  Beta  occ. eigenvalues --   -0.35901  -0.35484  -0.35074  -0.34835  -0.34001
  Beta  occ. eigenvalues --   -0.33338  -0.32132  -0.29990
  Beta virt. eigenvalues --   -0.20369  -0.19131  -0.17261  -0.16227  -0.12866
  Beta virt. eigenvalues --   -0.10851  -0.10524  -0.09405  -0.09123  -0.07750
  Beta virt. eigenvalues --   -0.07612  -0.07164  -0.07075  -0.06161  -0.05176

 Mulliken charges and spin densities:
               1          2
     1  C   -0.321343  -0.007774
     2  S   -0.046054  -0.005265
     3  C   -0.500797  -0.109555
     4  C   -0.402432  -0.126117
     5  C   -0.403010  -0.109795
     6  C   -0.373494  -0.106165
     7  C    0.373480   0.044621
     8  C   -0.052543   0.015160
     9  C   -0.020165   0.017237
    10  C    0.272329   0.042335
    11  C   -0.379287  -0.001777
    12  C   -0.335279  -0.002260
    13  C   -0.185541   0.000461
    14  C    0.277606   0.000130
    15  O   -0.347980  -0.000217
    16  O   -0.332235   0.000016
    17  C    0.176874   0.045178
    18  C   -0.040510   0.004845
    19  C    0.111689   0.003581
    20  C    0.207989   0.040506
    21  C   -0.382028  -0.000607
    22  C   -0.342744  -0.001034
    23  C   -0.246894   0.000637
    24  C    0.276143   0.043476
    25  C   -0.116939   0.018594
    26  C    0.064961   0.022487
    27  C    0.257201   0.040914
    28  C   -0.377564  -0.002217
    29  C   -0.159400  -0.015609
    30  C   -0.231965   0.029200
    31  C    0.078328   0.034331
    32  C    0.025821   0.005123
    33  C    0.037723  -0.002065
    34  C    0.264094   0.038391
    35  C   -0.383552  -0.000568
    36  C   -0.330044  -0.000552
    37  C   -0.190699  -0.000261
    38  C    0.258420   0.000041
    39  O   -0.315055  -0.000008
    40  O   -0.370319  -0.000038
    41  N   -0.008165  -0.137177
    42  N    0.038567  -0.132275
    43  N    0.011365  -0.121482
    44  N   -0.011986  -0.106535
    45  Fe  -0.314592   1.523843
    46  H    0.173266   0.001391
    47  H    0.189810  -0.000918
    48  H    0.172568   0.001683
    49  H    0.207242  -0.007652
    50  H    0.354894   0.000005
    51  H    0.141113  -0.000003
    52  H    0.143828   0.000192
    53  H    0.136353  -0.000035
    54  H    0.099274  -0.000052
    55  H    0.366838   0.000011
    56  H    0.100067   0.000152
    57  H    0.141011   0.000001
    58  H    0.160024  -0.000036
    59  H    0.130813   0.000610
    60  H    0.161045   0.005142
    61  H    0.155427   0.000384
    62  H    0.131162   0.000131
    63  H    0.161138   0.001030
    64  H    0.145402  -0.000032
    65  H    0.143229   0.000161
    66  H    0.155899   0.000336
    67  H    0.138880   0.004734
    68  H    0.152149   0.005493
    69  H    0.148052   0.000271
    70  H    0.156950  -0.000107
    71  H    0.146322   0.000436
    72  H    0.135440   0.000165
    73  H    0.164574   0.001073
    74  H    0.148491   0.000607
    75  H    0.176518   0.004869
    76  H    0.144874   0.000004
    77  H    0.153883  -0.000050
    78  H    0.159109   0.000205
    79  H    0.121308   0.000643
    80  H    0.146409  -0.001367
    81  H    0.126664  -0.001230
 Sum of Mulliken charges =   1.00000   1.00000

 Dipole moment (field-independent basis, Debye):
    X=              5.8957    Y=              3.8179    Z=              4.9073  Tot=              8.5684
 Quadrupole moment (field-independent basis, Debye-Ang):
   XX=           -194.1834   YY=           -206.8463   ZZ=           -254.4768
   XY=            -31.5104   XZ=            -14.4419   YZ=              4.9948

 Summary of Natural Population Analysis:

                                       Natural Population
                Natural  -----------------------------------------------
    Atom  No    Charge         Core      Valence    Rydberg      Total
 -----------------------------------------------------------------------
      C    1   -0.35761      0.99962     2.34918    0.00881     3.35761
      S    2    0.17235      4.99909     2.81149    0.01707     7.82765
      C    3   -0.14543      0.99945     2.13751    0.00847     3.14543
      C    4   -0.14505      0.99950     2.13774    0.00781     3.14505
      C    5   -0.14042      0.99946     2.13276    0.00820     3.14042
      C    6   -0.14092      0.99946     2.13349    0.00797     3.14092
      C    7    0.09282      0.99949     1.89758    0.01011     2.90718
      C    8   -0.00032      0.99941     1.99151    0.00940     3.00032
      C    9    0.01173      0.99944     1.98083    0.00800     2.98827
      C   10    0.09101      0.99954     1.89933    0.01012     2.90899
      C   11   -0.32013      0.99969     2.31672    0.00371     3.32013
      C   12   -0.21519      0.99966     2.20797    0.00756     3.21519
      C   13   -0.25030      0.99962     2.24258    0.00810     3.25030
      C   14    0.38490      0.99977     1.59742    0.01790     2.61510
      O   15   -0.29281      0.99989     3.28089    0.01202     4.29281
      O   16   -0.33180      0.99980     3.31781    0.01419     4.33180
      C   17    0.08942      0.99954     1.90132    0.00972     2.91058
      C   18    0.01239      0.99942     1.98013    0.00806     2.98761
      C   19   -0.04791      0.99940     2.03731    0.01119     3.04791
      C   20    0.10010      0.99951     1.88994    0.01045     2.89990
      C   21   -0.32238      0.99970     2.31669    0.00600     3.32238
      C   22   -0.11326      0.99957     2.10345    0.01025     3.11326
      C   23   -0.16707      0.99964     2.15997    0.00745     3.16707
      C   24    0.09479      0.99953     1.89598    0.00970     2.90521
      C   25    0.02129      0.99946     1.97107    0.00818     2.97871
      C   26   -0.03224      0.99945     2.02259    0.01020     3.03224
      C   27    0.10378      0.99953     1.88688    0.00981     2.89622
      C   28   -0.32180      0.99969     2.31822    0.00389     3.32180
      C   29   -0.12036      0.99956     2.11159    0.00920     3.12036
      C   30   -0.14286      0.99965     2.13737    0.00583     3.14286
      C   31    0.08274      0.99950     1.90764    0.01011     2.91726
      C   32   -0.00157      0.99937     1.99373    0.00847     3.00157
      C   33   -0.01291      0.99939     2.00383    0.00969     3.01291
      C   34    0.08771      0.99950     1.90244    0.01035     2.91229
      C   35   -0.32034      0.99969     2.31465    0.00600     3.32034
      C   36   -0.21565      0.99967     2.20868    0.00731     3.21565
      C   37   -0.24604      0.99962     2.23799    0.00843     3.24604
      C   38    0.38027      0.99977     1.60158    0.01838     2.61973
      O   39   -0.32335      0.99981     3.31019    0.01336     4.32335
      O   40   -0.30208      0.99989     3.28994    0.01225     4.30208
      N   41   -0.24314      0.99968     2.72391    0.01955     3.74314
      N   42   -0.24475      0.99968     2.72156    0.02352     3.74475
      N   43   -0.22599      0.99966     2.70840    0.01793     3.72599
      N   44   -0.24372      0.99970     2.72039    0.02363     3.74372
     Fe   45    0.84742      8.99351     3.14405    0.01502    12.15258
      H   46    0.12492      0.00000     0.37450    0.00058     0.37508
      H   47    0.12671      0.00000     0.37285    0.00044     0.37329
      H   48    0.12379      0.00000     0.37565    0.00057     0.37621
      H   49    0.09904      0.00000     0.39811    0.00286     0.40096
      H   50    0.26070      0.00000     0.23794    0.00135     0.23930
      H   51    0.12249      0.00000     0.37688    0.00063     0.37751
      H   52    0.11693      0.00000     0.38224    0.00083     0.38307
      H   53    0.11050      0.00000     0.38874    0.00077     0.38950
      H   54    0.11433      0.00000     0.38483    0.00083     0.38567
      H   55    0.26306      0.00000     0.23577    0.00117     0.23694
      H   56    0.10992      0.00000     0.38924    0.00084     0.39008
      H   57    0.11961      0.00000     0.37972    0.00067     0.38039
      H   58    0.12595      0.00000     0.37324    0.00081     0.37405
      H   59    0.11235      0.00000     0.38690    0.00075     0.38765
      H   60    0.11595      0.00000     0.38281    0.00124     0.38405
      H   61    0.11782      0.00000     0.38151    0.00067     0.38218
      H   62    0.10989      0.00000     0.38951    0.00061     0.39011
      H   63    0.11856      0.00000     0.38076    0.00068     0.38144
      H   64    0.11432      0.00000     0.38507    0.00061     0.38568
      H   65    0.11493      0.00000     0.38450    0.00057     0.38507
      H   66    0.11580      0.00000     0.38356    0.00063     0.38420
      H   67    0.11699      0.00000     0.38195    0.00106     0.38301
      H   68    0.11714      0.00000     0.38167    0.00119     0.38286
      H   69    0.11516      0.00000     0.38424    0.00060     0.38484
      H   70    0.11923      0.00000     0.38022    0.00056     0.38077
      H   71    0.11624      0.00000     0.38316    0.00060     0.38376
      H   72    0.11363      0.00000     0.38557    0.00080     0.38637
      H   73    0.11816      0.00000     0.38111    0.00073     0.38184
      H   74    0.11666      0.00000     0.38269    0.00065     0.38334
      H   75    0.12167      0.00000     0.37712    0.00121     0.37833
      H   76    0.09784      0.00000     0.40133    0.00083     0.40216
      H   77    0.10657      0.00000     0.39282    0.00061     0.39343
      H   78    0.11242      0.00000     0.38643    0.00115     0.38758
      H   79    0.10751      0.00000     0.39170    0.00080     0.39249
      H   80    0.10466      0.00000     0.39472    0.00062     0.39534
      H   81    0.09324      0.00000     0.40585    0.00091     0.40676
 =======================================================================
   * Total *    1.00000     56.97499   115.51122    0.51379   173.00000

 Normal termination of Gaussian 16 at Mon Dec  5 12:29:18 2022.
