 Gaussian 16, Revision A.03,
 Gaussian 16:  ES64L-G16RevA.03 25-Dec-2016

 ----------------------------------------------------------------------
 # PBE1PBE/def2TZVP guess=read empiricaldispersion=GD3BJ scf=qc scf=max
 cycle=999 geom=check pop=nbo
 ----------------------------------------------------------------------

 ----------
 1cyo_III_D
 ----------
 Structure from the checkpoint file:  "1cyo_III_Dn.chk"
 Charge =  1 Multiplicity = 2

                         Standard orientation:
 ---------------------------------------------------------------------
 Center     Atomic      Atomic             Coordinates (Angstroms)
 Number     Number       Type             X           Y           Z
 ---------------------------------------------------------------------
      1          6           0       -1.962559   -0.036319    5.564935
      2          6           0       -1.551768    0.475254    4.219101
      3          7           0       -1.424686    1.823566    3.903122
      4          6           0       -1.293457   -0.308189    3.116329
      5          6           0       -1.114310    1.842021    2.619173
      6          7           0       -1.015390    0.649205    2.139599
      7          6           0        0.189905   -2.394504   -4.751453
      8          6           0       -0.027358   -1.350459   -3.668995
      9          7           0       -0.375681   -0.041459   -3.942193
     10          6           0       -0.010297   -1.548008   -2.275641
     11          6           0       -0.595972    0.519120   -2.739329
     12          7           0       -0.387956   -0.303755   -1.774543
     13          6           0        2.621510   -0.127597    0.689370
     14          6           0       -1.103885   -3.192100    0.943366
     15          6           0       -4.035885    0.363291   -0.601650
     16          6           0       -0.380271    3.485120   -0.432248
     17          6           0        1.878770   -1.298590    0.771402
     18          6           0        2.416081   -2.648903    1.027135
     19          6           0        1.360932   -3.511410    1.177622
     20          6           0        0.184602   -2.695737    0.977954
     21          6           0        1.404456   -5.008193    1.481740
     22          6           0        3.886876   -3.013139    1.062170
     23          6           0        4.520034   -2.906928   -0.316648
     24          6           0        3.900106   -3.860221   -1.317908
     25          8           0        3.737891   -5.049722   -0.988472
     26          8           0        3.608511   -3.442968   -2.453824
     27          6           0       -2.236614   -2.474055    0.567589
     28          6           0       -3.568317   -3.048068    0.460915
     29          6           0       -4.380757   -2.050293   -0.040942
     30          6           0       -3.553154   -0.872276   -0.165282
     31          6           0       -3.932807   -4.506238    0.740881
     32          6           0       -5.680821   -2.122982   -0.590444
     33          6           0       -6.817362   -2.725408   -0.100259
     34          6           0       -3.295575    1.503889   -0.711375
     35          6           0       -3.859317    2.797227   -1.155075
     36          6           0       -2.812489    3.673735   -1.103454
     37          6           0       -1.643697    2.934192   -0.607519
     38          6           0       -5.326140    3.011580   -1.606043
     39          6           0       -2.815619    5.034126   -1.442452
     40          6           0       -3.856320    5.873357   -1.076683
     41          6           0        0.771452    2.803724   -0.118263
     42          6           0        2.066880    3.402076    0.066415
     43          6           0        2.886037    2.398531    0.425693
     44          6           0        2.131087    1.151173    0.389326
     45          6           0        2.457625    4.857161   -0.148381
     46          6           0        4.312482    2.535824    0.898676
     47          6           0        5.264139    2.421030   -0.267077
     48          6           0        6.708125    2.428947    0.175654
     49          8           0        7.468476    1.563629   -0.305490
     50          8           0        7.087801    3.306065    0.987451
     51          7           0        0.518526   -1.337814    0.686132
     52          7           0       -2.235429   -1.119498    0.192405
     53          7           0       -1.944689    1.598588   -0.399517
     54          7           0        0.813405    1.420864    0.094567
     55         26           0       -0.712757    0.132434    0.153253
     56          1           0        0.169633   -1.922464   -5.711488
     57          1           0        1.139006   -2.866732   -4.606164
     58          1           0       -0.585933   -3.129499   -4.698940
     59          1           0        0.233416   -2.437403   -1.732980
     60          1           0       -0.448242    0.394456   -4.839251
     61          1           0       -0.908366    1.533218   -2.601803
     62          1           0       -1.542362    2.606851    4.513546
     63          1           0       -0.963890    2.734741    2.048800
     64          1           0       -1.303373   -1.374699    3.030550
     65          1           0       -2.053552   -1.101835    5.528934
     66          1           0       -1.223743    0.234253    6.290085
     67          1           0       -2.903952    0.393030    5.837587
     68          1           0       -3.716144    6.589853   -0.294453
     69          1           0       -4.799891    5.804722   -1.576546
     70          1           0       -1.993475    5.434810   -1.997818
     71          1           0       -5.597165    2.253144   -2.310473
     72          1           0       -5.972647    2.955610   -0.755281
     73          1           0       -5.421529    3.974007   -2.063793
     74          1           0       -5.069694    0.419969   -0.871698
     75          1           0       -7.251463   -3.552971   -0.621407
     76          1           0       -7.266694   -2.366107    0.801907
     77          1           0       -5.800254   -1.633568   -1.534430
     78          1           0       -3.633906   -5.113965   -0.087506
     79          1           0       -3.429206   -4.836259    1.625399
     80          1           0       -4.990401   -4.588999    0.880686
     81          1           0       -1.243520   -4.213725    1.229169
     82          1           0        1.771404   -5.535485    0.626046
     83          1           0        2.053028   -5.184264    2.314358
     84          1           0        0.419414   -5.352979    1.717780
     85          1           0        4.401917   -1.905506   -0.674562
     86          1           0        5.564599   -3.123804   -0.234501
     87          1           0        3.989888   -4.017105    1.417616
     88          1           0        4.394954   -2.351208    1.731949
     89          1           0        3.531656   -4.058755   -3.186285
     90          1           0        4.526154    1.762960    1.607142
     91          1           0        4.439735    3.489653    1.366562
     92          1           0        5.065845    1.508017   -0.788601
     93          1           0        5.100143    3.243551   -0.931504
     94          1           0        7.329559    1.247062   -1.201083
     95          1           0        1.973948    5.230411   -1.026811
     96          1           0        2.155090    5.436500    0.698814
     97          1           0        3.518562    4.927615   -0.268164
     98          1           0        3.672354   -0.209668    0.873462
     99          1           0       -0.295447    4.544812   -0.553726
 ---------------------------------------------------------------------

 SCF Done:  E(UPBE1PBE) =  -3627.36552226     a.u. after   36 cycles

 Alpha virt. eigenvalues --    1.04028   1.04288   1.04654   1.04886   1.05425
 Alpha virt. eigenvalues --    1.05794   1.06155   1.06615   1.06969   1.07349
 Alpha virt. eigenvalues --    1.07698   1.07797   1.08145   1.08253   1.08478

  Beta  occ. eigenvalues -- -256.50075 -30.26669 -26.09693 -26.09489 -26.08797
  Beta  occ. eigenvalues --  -19.34926 -19.33679 -19.25254 -19.24328 -14.55475
  Beta  occ. eigenvalues --  -14.54715 -14.51181 -14.50055 -14.48612 -14.48550
  Beta  occ. eigenvalues --  -14.48211 -14.48108 -10.43077 -10.41970 -10.38654
  Beta  occ. eigenvalues --  -10.38152 -10.37377 -10.36139 -10.35935 -10.35209
  Beta  occ. eigenvalues --  -10.35099 -10.35041 -10.35016 -10.34905 -10.34847
  Beta  occ. eigenvalues --  -10.34823 -10.34689 -10.33914 -10.32732 -10.32517
  Beta  occ. eigenvalues --  -10.32489 -10.32330 -10.32088 -10.32019 -10.31837
  Beta  occ. eigenvalues --  -10.31788 -10.31782 -10.31754 -10.31683 -10.31618
  Beta  occ. eigenvalues --  -10.31452 -10.31370 -10.31267 -10.31173 -10.31158
  Beta  occ. eigenvalues --  -10.30808 -10.30750 -10.30705 -10.30501 -10.30260
  Beta  occ. eigenvalues --  -10.30127 -10.30006 -10.29410 -10.29039  -3.58933
  Beta  occ. eigenvalues --   -2.34157  -2.34129  -2.33751  -1.25641  -1.24096
  Beta  occ. eigenvalues --   -1.16841  -1.16686  -1.10440  -1.09200  -1.07822
  Beta  occ. eigenvalues --   -1.06697  -1.06550  -1.05501  -1.02645  -1.01597
  Beta  occ. eigenvalues --   -0.93663  -0.93186  -0.92811  -0.92502  -0.92014
  Beta  occ. eigenvalues --   -0.90758  -0.90593  -0.90506  -0.90469  -0.88246
  Beta  occ. eigenvalues --   -0.87488  -0.86381  -0.85584  -0.85183  -0.82879
  Beta  occ. eigenvalues --   -0.82377  -0.81596  -0.81445  -0.81159  -0.80685
  Beta  occ. eigenvalues --   -0.79051  -0.78747  -0.77311  -0.75754  -0.75563
  Beta  occ. eigenvalues --   -0.75192  -0.74829  -0.74193  -0.73211  -0.72563
  Beta  occ. eigenvalues --   -0.72308  -0.71648  -0.70719  -0.68927  -0.67521
  Beta  occ. eigenvalues --   -0.66850  -0.66276  -0.65112  -0.64237  -0.63654
  Beta  occ. eigenvalues --   -0.63304  -0.62051  -0.61830  -0.61229  -0.60779
  Beta  occ. eigenvalues --   -0.60026  -0.59281  -0.59034  -0.58788  -0.58420
  Beta  occ. eigenvalues --   -0.58188  -0.57999  -0.57801  -0.57469  -0.57466
  Beta  occ. eigenvalues --   -0.57343  -0.56071  -0.55897  -0.55590  -0.55404
  Beta  occ. eigenvalues --   -0.54702  -0.54667  -0.54170  -0.53985  -0.53769
  Beta  occ. eigenvalues --   -0.53580  -0.53373  -0.53176  -0.52901  -0.52691
  Beta  occ. eigenvalues --   -0.52484  -0.52330  -0.52186  -0.51884  -0.51788
  Beta  occ. eigenvalues --   -0.51727  -0.51574  -0.51202  -0.50863  -0.50777
  Beta  occ. eigenvalues --   -0.50344  -0.50150  -0.49905  -0.49712  -0.49566
  Beta  occ. eigenvalues --   -0.49403  -0.49184  -0.48979  -0.48583  -0.48468
  Beta  occ. eigenvalues --   -0.48221  -0.47915  -0.47532  -0.47234  -0.47049
  Beta  occ. eigenvalues --   -0.46940  -0.46769  -0.46480  -0.45926  -0.45492
  Beta  occ. eigenvalues --   -0.45068  -0.44903  -0.44060  -0.43781  -0.43396
  Beta  occ. eigenvalues --   -0.43266  -0.42873  -0.42324  -0.42235  -0.41476
  Beta  occ. eigenvalues --   -0.40540  -0.40348  -0.39159  -0.39097  -0.38026
  Beta  occ. eigenvalues --   -0.37820  -0.36390  -0.36144  -0.35731  -0.35023
  Beta  occ. eigenvalues --   -0.34539  -0.34267  -0.34113  -0.33345  -0.32529
  Beta  occ. eigenvalues --   -0.29936  -0.29174  -0.27905  -0.27032
  Beta virt. eigenvalues --   -0.19429  -0.17776  -0.16467  -0.14778  -0.13980
  Beta virt. eigenvalues --   -0.12249  -0.09949  -0.09517  -0.07944  -0.07515
  Beta virt. eigenvalues --   -0.07140  -0.06953  -0.06601  -0.06398  -0.05517

 Mulliken charges and spin densities:
               1          2
     1  C   -0.384275  -0.000330
     2  C    0.174941   0.000165
     3  N   -0.212590   0.002331
     4  C   -0.203407   0.000896
     5  C    0.036328   0.012484
     6  N    0.064230  -0.040931
     7  C   -0.352802  -0.000439
     8  C    0.108976   0.000355
     9  N   -0.211476   0.001900
    10  C   -0.171258   0.001096
    11  C    0.029731   0.014774
    12  N    0.139297  -0.042000
    13  C   -0.541769  -0.008936
    14  C   -0.554344  -0.003705
    15  C   -0.483309  -0.007416
    16  C   -0.580447  -0.001230
    17  C    0.267373   0.003312
    18  C   -0.116369   0.016907
    19  C   -0.062296  -0.005732
    20  C    0.265581   0.011198
    21  C   -0.411272  -0.000157
    22  C   -0.171227  -0.001393
    23  C   -0.179960   0.000638
    24  C    0.275177   0.000088
    25  O   -0.381420  -0.000014
    26  O   -0.325486  -0.000010
    27  C    0.243629   0.009203
    28  C   -0.064880   0.009219
    29  C    0.015990   0.006201
    30  C    0.274402   0.004126
    31  C   -0.386084  -0.001103
    32  C   -0.233887   0.042809
    33  C   -0.319010  -0.044349
    34  C    0.296171   0.002006
    35  C   -0.109231   0.013850
    36  C    0.061967  -0.004103
    37  C    0.126875   0.006463
    38  C   -0.387162  -0.000773
    39  C   -0.212919  -0.004332
    40  C   -0.286106   0.003125
    41  C    0.294079   0.004308
    42  C   -0.105724   0.000276
    43  C    0.058445   0.011065
    44  C    0.257562   0.004777
    45  C   -0.400348  -0.000603
    46  C   -0.383801  -0.001012
    47  C   -0.254858   0.000533
    48  C    0.322417   0.000128
    49  O   -0.298503   0.000037
    50  O   -0.356685   0.000044
    51  N   -0.004430  -0.029243
    52  N    0.040654  -0.033526
    53  N   -0.015479  -0.032121
    54  N    0.022790  -0.033791
    55  Fe  -0.358285   1.108617
    56  H    0.130576  -0.000071
    57  H    0.132750   0.000089
    58  H    0.161372   0.000095
    59  H    0.174093  -0.000227
    60  H    0.255311  -0.000337
    61  H    0.184684  -0.001018
    62  H    0.256769  -0.000424
    63  H    0.189051  -0.000961
    64  H    0.175066  -0.000272
    65  H    0.146931  -0.000014
    66  H    0.149030   0.000020
    67  H    0.145324  -0.000043
    68  H    0.160409  -0.000370
    69  H    0.155786  -0.000266
    70  H    0.153887   0.000339
    71  H    0.143031   0.000296
    72  H    0.159047   0.000598
    73  H    0.133096  -0.000020
    74  H    0.142872   0.000260
    75  H    0.162462   0.003493
    76  H    0.157828   0.003711
    77  H    0.145103  -0.002144
    78  H    0.149530   0.000629
    79  H    0.137270   0.000069
    80  H    0.161030  -0.000096
    81  H    0.112887   0.000108
    82  H    0.185824  -0.000160
    83  H    0.146855  -0.000152
    84  H    0.126247  -0.000041
    85  H    0.106846  -0.000033
    86  H    0.143340   0.000146
    87  H    0.138043   0.000016
    88  H    0.132567   0.000527
    89  H    0.351432  -0.000000
    90  H    0.138865   0.000111
    91  H    0.167199   0.000142
    92  H    0.115684  -0.000008
    93  H    0.139043  -0.000013
    94  H    0.347062  -0.000003
    95  H    0.141725   0.000039
    96  H    0.154428   0.000117
    97  H    0.150651  -0.000052
    98  H    0.137742   0.000176
    99  H    0.145739   0.000064
 Sum of Mulliken charges =   1.00000   1.00000

 Dipole moment (field-independent basis, Debye):
    X=             -5.7055    Y=              1.1438    Z=             -4.5104  Tot=              7.3624
 Quadrupole moment (field-independent basis, Debye-Ang):
   XX=           -289.6174   YY=           -280.4593   ZZ=           -238.7745
   XY=            -21.9672   XZ=            -31.5700   YZ=              3.7872

 Summary of Natural Population Analysis:

                                       Natural Population
                Natural  -----------------------------------------------
    Atom  No    Charge         Core      Valence    Rydberg      Total
 -----------------------------------------------------------------------
      C    1   -0.32142      0.99969     2.31611    0.00562     3.32142
      C    2    0.06563      0.99958     1.92596    0.00883     2.93437
      N    3   -0.24054      0.99968     2.73097    0.00989     3.74054
      C    4   -0.03887      0.99947     2.03053    0.00887     3.03887
      C    5    0.11631      0.99964     1.87330    0.01075     2.88369
      N    6   -0.18290      0.99966     2.66041    0.02282     3.68290
      C    7   -0.32111      0.99969     2.31821    0.00321     3.32111
      C    8    0.07000      0.99964     1.92285    0.00751     2.93000
      N    9   -0.24144      0.99970     2.73203    0.00971     3.74144
      C   10   -0.04022      0.99952     2.03190    0.00881     3.04022
      C   11    0.11592      0.99963     1.87350    0.01095     2.88408
      N   12   -0.17605      0.99964     2.65334    0.02308     3.67605
      C   13   -0.12447      0.99950     2.11646    0.00851     3.12447
      C   14   -0.12475      0.99947     2.11717    0.00811     3.12475
      C   15   -0.12057      0.99947     2.11279    0.00831     3.12057
      C   16   -0.13821      0.99947     2.13002    0.00871     3.13821
      C   17    0.08178      0.99953     1.90856    0.01014     2.91822
      C   18    0.00057      0.99947     1.99093    0.00902     2.99943
      C   19   -0.00780      0.99942     2.00000    0.00838     3.00780
      C   20    0.08093      0.99948     1.90947    0.01012     2.91907
      C   21   -0.32116      0.99969     2.31520    0.00628     3.32116
      C   22   -0.21476      0.99966     2.20768    0.00742     3.21476
      C   23   -0.24705      0.99962     2.23902    0.00841     3.24705
      C   24    0.38500      0.99977     1.59676    0.01848     2.61500
      O   25   -0.31124      0.99989     3.29889    0.01247     4.31124
      O   26   -0.32286      0.99981     3.30943    0.01363     4.32286
      C   27    0.08080      0.99951     1.90965    0.01004     2.91920
      C   28    0.01838      0.99946     1.97398    0.00818     2.98162
      C   29   -0.04765      0.99944     2.03781    0.01040     3.04765
      C   30    0.09543      0.99953     1.89505    0.00999     2.90457
      C   31   -0.32229      0.99969     2.31888    0.00372     3.32229
      C   32   -0.08584      0.99962     2.07528    0.01094     3.08584
      C   33   -0.20342      0.99967     2.19378    0.00996     3.20342
      C   34    0.07728      0.99950     1.91305    0.01017     2.92272
      C   35    0.01467      0.99945     1.97751    0.00837     2.98533
      C   36   -0.06283      0.99942     2.05268    0.01072     3.06283
      C   37    0.09160      0.99953     1.89798    0.01089     2.90840
      C   38   -0.32073      0.99969     2.31673    0.00431     3.32073
      C   39   -0.09508      0.99961     2.08435    0.01112     3.09508
      C   40   -0.17551      0.99969     2.16542    0.01040     3.17551
      C   41    0.08045      0.99949     1.90983    0.01023     2.91955
      C   42   -0.01103      0.99938     2.00341    0.00824     3.01103
      C   43   -0.00034      0.99942     1.99152    0.00940     3.00034
      C   44    0.08517      0.99954     1.90538    0.00991     2.91483
      C   45   -0.31958      0.99969     2.31615    0.00373     3.31958
      C   46   -0.21144      0.99966     2.20400    0.00777     3.21144
      C   47   -0.25403      0.99963     2.24584    0.00856     3.25403
      C   48    0.38003      0.99974     1.60305    0.01718     2.61997
      O   49   -0.31664      0.99980     3.30140    0.01544     4.31664
      O   50   -0.28666      0.99989     3.27502    0.01174     4.28666
      N   51   -0.20851      0.99968     2.68531    0.02353     3.70851
      N   52   -0.19691      0.99967     2.67518    0.02205     3.69691
      N   53   -0.21327      0.99968     2.69022    0.02337     3.71327
      N   54   -0.20085      0.99967     2.67850    0.02268     3.70085
     Fe   55    0.68798      8.99490     3.29330    0.02383    12.31202
      H   56    0.11068      0.00000     0.38874    0.00058     0.38932
      H   57    0.11492      0.00000     0.38440    0.00069     0.38508
      H   58    0.11952      0.00000     0.37989    0.00059     0.38048
      H   59    0.12411      0.00000     0.37497    0.00091     0.37589
      H   60    0.21672      0.00000     0.28245    0.00083     0.28328
      H   61    0.11525      0.00000     0.38381    0.00094     0.38475
      H   62    0.21659      0.00000     0.28264    0.00077     0.28341
      H   63    0.11371      0.00000     0.38545    0.00084     0.38629
      H   64    0.12405      0.00000     0.37517    0.00078     0.37595
      H   65    0.11892      0.00000     0.38071    0.00036     0.38108
      H   66    0.11402      0.00000     0.38541    0.00057     0.38598
      H   67    0.11347      0.00000     0.38597    0.00056     0.38653
      H   68    0.10520      0.00000     0.39384    0.00095     0.39480
      H   69    0.10030      0.00000     0.39866    0.00104     0.39970
      H   70    0.10891      0.00000     0.38997    0.00112     0.39109
      H   71    0.11415      0.00000     0.38518    0.00067     0.38585
      H   72    0.11710      0.00000     0.38209    0.00081     0.38290
      H   73    0.11328      0.00000     0.38602    0.00071     0.38672
      H   74    0.11432      0.00000     0.38452    0.00116     0.38568
      H   75    0.10558      0.00000     0.39358    0.00084     0.39442
      H   76    0.10394      0.00000     0.39483    0.00122     0.39606
      H   77    0.10512      0.00000     0.39336    0.00153     0.39488
      H   78    0.11450      0.00000     0.38469    0.00081     0.38550
      H   79    0.11251      0.00000     0.38686    0.00063     0.38749
      H   80    0.12009      0.00000     0.37914    0.00077     0.37991
      H   81    0.11473      0.00000     0.38376    0.00151     0.38527
      H   82    0.12781      0.00000     0.37160    0.00059     0.37219
      H   83    0.11608      0.00000     0.38333    0.00059     0.38392
      H   84    0.10775      0.00000     0.39184    0.00041     0.39225
      H   85    0.10791      0.00000     0.39139    0.00070     0.39209
      H   86    0.12441      0.00000     0.37500    0.00059     0.37559
      H   87    0.12247      0.00000     0.37674    0.00079     0.37753
      H   88    0.11312      0.00000     0.38619    0.00069     0.38688
      H   89    0.25675      0.00000     0.24173    0.00153     0.24325
      H   90    0.11093      0.00000     0.38810    0.00097     0.38907
      H   91    0.12332      0.00000     0.37595    0.00074     0.37668
      H   92    0.09950      0.00000     0.39963    0.00087     0.40050
      H   93    0.11784      0.00000     0.38148    0.00067     0.38216
      H   94    0.25169      0.00000     0.24728    0.00103     0.24831
      H   95    0.11306      0.00000     0.38628    0.00066     0.38694
      H   96    0.11523      0.00000     0.38403    0.00074     0.38477
      H   97    0.11467      0.00000     0.38465    0.00068     0.38533
      H   98    0.10973      0.00000     0.38912    0.00115     0.39027
      H   99    0.11618      0.00000     0.38207    0.00175     0.38382
 =======================================================================
   * Total *    1.00000     62.97344   140.37429    0.65227   204.00000

 Normal termination of Gaussian 16 at Fri Mar 10 06:34:10 2023.
