 Gaussian 16, Revision A.03,
 Gaussian 16:  ES64L-G16RevA.03 25-Dec-2016

 ----------------------------------------------------------------------
 # PBE1PBE/def2TZVP empiricaldispersion=GD3BJ int=(grid=ultrafine) geom
 =check pop=nbo guess=read
 ----------------------------------------------------------------------

 ---------
 3ccx_II_Q
 ---------
 Structure from the checkpoint file:  "3ccx_II_Q.chk"
 Charge =  0 Multiplicity = 5

                         Standard orientation:
 ---------------------------------------------------------------------
 Center     Atomic      Atomic             Coordinates (Angstroms)
 Number     Number       Type             X           Y           Z
 ---------------------------------------------------------------------
      1          6           0       -1.539573   -1.961020    5.107070
      2          6           0       -1.583767   -1.033946    3.882742
      3          7           0       -2.015085    0.224340    3.801803
      4          6           0       -1.125232   -1.329653    2.598305
      5          6           0       -1.834548    0.699400    2.578373
      6          7           0       -1.290794   -0.260400    1.839520
      7          6           0        2.386895   -0.003326    0.038318
      8          6           0       -0.900885    3.492459   -0.293123
      9          6           0       -4.279118    0.234487   -0.875102
     10          6           0       -0.993776   -3.224622   -0.802009
     11          6           0        1.801623    1.280879   -0.021938
     12          6           0        2.521232    2.456089    0.011107
     13          6           0        1.564116    3.473653   -0.087278
     14          6           0        0.337716    2.838532   -0.177076
     15          6           0        1.772330    4.976248    0.027847
     16          6           0        4.038218    2.561357    0.213295
     17          6           0        4.857104    2.785202   -1.057417
     18          6           0        6.368767    2.862431   -0.844485
     19          8           0        6.858836    3.862685   -0.329724
     20          8           0        7.101866    1.931585   -1.174787
     21          6           0       -2.182613    2.944829   -0.362994
     22          6           0       -3.380885    3.669331   -0.380061
     23          6           0       -4.362615    2.699900   -0.564101
     24          6           0       -3.688251    1.476113   -0.613463
     25          6           0       -3.518326    5.180543   -0.234419
     26          6           0       -5.756514    2.807752   -0.641291
     27          6           0       -6.385666    4.013999   -0.305051
     28          6           0       -3.696443   -1.033460   -0.985267
     29          6           0       -4.394625   -2.194723   -1.299111
     30          6           0       -3.406517   -3.182582   -1.363891
     31          6           0       -2.214505   -2.556931   -0.994190
     32          6           0       -5.895519   -2.290644   -1.602777
     33          6           0       -3.468745   -4.556478   -1.642756
     34          6           0       -4.610010   -5.429277   -1.699237
     35          6           0        0.243879   -2.692641   -0.445585
     36          6           0        1.365715   -3.435992   -0.118070
     37          6           0        2.351945   -2.490731    0.122302
     38          6           0        1.757737   -1.248929   -0.064958
     39          6           0        1.486711   -4.956252    0.017465
     40          6           0        3.778404   -2.771710    0.565166
     41          6           0        4.770476   -2.654294   -0.573794
     42          6           0        6.244914   -2.739384   -0.204730
     43          8           0        7.054360   -2.319188   -1.010225
     44          8           0        6.609267   -3.206198    0.870378
     45          7           0        0.476940    1.523026   -0.121546
     46          7           0       -2.387309    1.630569   -0.390212
     47          7           0       -2.389387   -1.251151   -0.808585
     48          7           0        0.455367   -1.377017   -0.336816
     49         26           0       -1.002351    0.113984   -0.120574
     50          1           0        7.596780    4.307700   -0.752809
     51          1           0        4.653260    1.982482   -1.734903
     52          1           0        4.533776    3.699557   -1.509428
     53          1           0        4.230752    3.373697    0.882574
     54          1           0        4.377521    1.657625    0.674859
     55          1           0        7.239579   -2.817886   -1.809346
     56          1           0        4.560521   -3.433840   -1.276024
     57          1           0        4.605536   -1.715339   -1.059652
     58          1           0        3.827472   -3.762553    0.966068
     59          1           0        4.046695   -2.074337    1.331058
     60          1           0        3.447053   -0.026595    0.181231
     61          1           0        1.621217    5.431577   -0.928574
     62          1           0        1.073175    5.380460    0.729770
     63          1           0        2.769042    5.173542    0.363318
     64          1           0       -0.854643    4.560693   -0.333608
     65          1           0       -3.904877    5.592739   -1.143029
     66          1           0       -4.187452    5.401882    0.570678
     67          1           0       -2.559121    5.607738   -0.028677
     68          1           0       -5.340053    0.258247   -1.012046
     69          1           0       -6.095973   -3.202092   -2.126209
     70          1           0       -6.446525   -2.277443   -0.685651
     71          1           0       -6.190758   -1.459291   -2.208240
     72          1           0       -1.017358   -4.284207   -0.949063
     73          1           0       -0.710074   -2.263590    2.281594
     74          1           0       -2.418656    0.738197    4.558825
     75          1           0       -2.083544    1.684832    2.243970
     76          1           0       -0.857409   -2.764276    4.921779
     77          1           0       -1.214078   -1.406821    5.962533
     78          1           0       -2.516451   -2.357627    5.289585
     79          1           0        2.154883   -5.328965   -0.730554
     80          1           0        1.866703   -5.198698    0.987890
     81          1           0        0.523105   -5.403533   -0.110224
     82          1           0       -6.341332    1.969174   -0.957005
     83          1           0       -7.122637    4.433125   -0.957820
     84          1           0       -6.129060    4.515874    0.604440
     85          1           0       -4.553297   -6.349683   -2.241950
     86          1           0       -5.516009   -5.158369   -1.198562
     87          1           0       -2.527300   -5.023874   -1.843063
 ---------------------------------------------------------------------

 SCF Done:  E(UPBE1PBE) =  -3362.26137683     A.U. after    1 cycles

 Alpha virt. eigenvalues --    0.62344   0.62612   0.62856   0.62878   0.63373
 Alpha virt. eigenvalues --    0.63424   0.63635   0.64063   0.64270   0.64579
 Alpha virt. eigenvalues --    0.64795   0.64957   0.65008   0.65433   0.65779

  Beta  occ. eigenvalues -- -256.31307 -30.03897 -25.87942 -25.87029 -25.86336
  Beta  occ. eigenvalues --  -19.25629 -19.24467 -19.17128 -19.16964 -14.46808
  Beta  occ. eigenvalues --  -14.39989 -14.35661 -14.35392 -14.35146 -14.34756
  Beta  occ. eigenvalues --  -10.34494 -10.33811 -10.29209 -10.27635 -10.24724
  Beta  occ. eigenvalues --  -10.24415 -10.24074 -10.23979 -10.23822 -10.23738
  Beta  occ. eigenvalues --  -10.23722 -10.23530 -10.23458 -10.23392 -10.23100
  Beta  occ. eigenvalues --  -10.22993 -10.22870 -10.22855 -10.22778 -10.22412
  Beta  occ. eigenvalues --  -10.22208 -10.22125 -10.21974 -10.21928 -10.21925
  Beta  occ. eigenvalues --  -10.21830 -10.21800 -10.21794 -10.21691 -10.21603
  Beta  occ. eigenvalues --  -10.21571 -10.21526 -10.21436 -10.21404 -10.21400
  Beta  occ. eigenvalues --  -10.21365 -10.21362 -10.21096  -3.35144  -2.10664
  Beta  occ. eigenvalues --   -2.09810  -2.09434  -1.18001  -1.17464  -1.09189
  Beta  occ. eigenvalues --   -1.02658  -1.02620  -0.99994  -0.99121  -0.98846
  Beta  occ. eigenvalues --   -0.98130  -0.93838  -0.84091  -0.83393  -0.83274
  Beta  occ. eigenvalues --   -0.83082  -0.82317  -0.81975  -0.81309  -0.81061
  Beta  occ. eigenvalues --   -0.79287  -0.78587  -0.77150  -0.75874  -0.74999
  Beta  occ. eigenvalues --   -0.74020  -0.73943  -0.72725  -0.72153  -0.71512
  Beta  occ. eigenvalues --   -0.70180  -0.69834  -0.69580  -0.67092  -0.66712
  Beta  occ. eigenvalues --   -0.66514  -0.65501  -0.65147  -0.64126  -0.62657
  Beta  occ. eigenvalues --   -0.61864  -0.58948  -0.58213  -0.58125  -0.56637
  Beta  occ. eigenvalues --   -0.55342  -0.54750  -0.53734  -0.52969  -0.52674
  Beta  occ. eigenvalues --   -0.52439  -0.52127  -0.51516  -0.50996  -0.50782
  Beta  occ. eigenvalues --   -0.50032  -0.49848  -0.49371  -0.49311  -0.48578
  Beta  occ. eigenvalues --   -0.48359  -0.46976  -0.46466  -0.46185  -0.46006
  Beta  occ. eigenvalues --   -0.45896  -0.45023  -0.44987  -0.44690  -0.44509
  Beta  occ. eigenvalues --   -0.44384  -0.44342  -0.44228  -0.43963  -0.43775
  Beta  occ. eigenvalues --   -0.43541  -0.43252  -0.42789  -0.42583  -0.42220
  Beta  occ. eigenvalues --   -0.41935  -0.41857  -0.41481  -0.41333  -0.40874
  Beta  occ. eigenvalues --   -0.40447  -0.40080  -0.39797  -0.39156  -0.38883
  Beta  occ. eigenvalues --   -0.38568  -0.38423  -0.38278  -0.37928  -0.37677
  Beta  occ. eigenvalues --   -0.37548  -0.36989  -0.36541  -0.36301  -0.36263
  Beta  occ. eigenvalues --   -0.35630  -0.35469  -0.35176  -0.34402  -0.34038
  Beta  occ. eigenvalues --   -0.33939  -0.32823  -0.32611  -0.32360  -0.31079
  Beta  occ. eigenvalues --   -0.30850  -0.30322  -0.30021  -0.29490  -0.27464
  Beta  occ. eigenvalues --   -0.27317  -0.27177  -0.27013  -0.25283  -0.23893
  Beta  occ. eigenvalues --   -0.23160  -0.21890  -0.20790  -0.19305  -0.18795
  Beta  occ. eigenvalues --   -0.16123
  Beta virt. eigenvalues --   -0.08382  -0.08277  -0.04668  -0.02393  -0.00604
  Beta virt. eigenvalues --   -0.00364  -0.00090   0.00988   0.01013   0.01542
  Beta virt. eigenvalues --    0.01993   0.02948   0.03626   0.04037   0.04386

 Mulliken charges and spin densities:
               1          2
     1  C   -0.368708   0.001033
     2  C    0.137039   0.001084
     3  N   -0.201119   0.002935
     4  C   -0.189120   0.004886
     5  C    0.020396   0.005453
     6  N   -0.055028   0.016623
     7  C   -0.489171  -0.009191
     8  C   -0.489855   0.015005
     9  C   -0.500257  -0.017390
    10  C   -0.478493  -0.015273
    11  C    0.322290   0.015589
    12  C    0.036183  -0.005735
    13  C   -0.061171   0.014638
    14  C    0.259461  -0.000788
    15  C   -0.404740  -0.000442
    16  C   -0.452061   0.001222
    17  C   -0.107073  -0.000358
    18  C    0.236392   0.000040
    19  O   -0.327073   0.000010
    20  O   -0.350541   0.000013
    21  C    0.328188  -0.009728
    22  C   -0.165000   0.053331
    23  C    0.047445  -0.033899
    24  C    0.319592   0.021531
    25  C   -0.319955  -0.001868
    26  C   -0.155805   0.097268
    27  C   -0.328614  -0.127044
    28  C    0.314717   0.016554
    29  C   -0.115113  -0.003883
    30  C    0.023006   0.014659
    31  C    0.291294   0.008814
    32  C   -0.406839   0.000612
    33  C   -0.136594  -0.013289
    34  C   -0.326443   0.020136
    35  C    0.307595   0.012343
    36  C   -0.102368   0.013748
    37  C    0.016378  -0.001222
    38  C    0.282014   0.016800
    39  C   -0.403171  -0.000029
    40  C   -0.287234   0.000328
    41  C   -0.290678  -0.000080
    42  C    0.277996   0.000026
    43  O   -0.303189  -0.000002
    44  O   -0.332629  -0.000007
    45  N   -0.157510   0.007234
    46  N   -0.200197   0.013034
    47  N   -0.172163   0.007323
    48  N   -0.200771   0.000370
    49  Fe   0.143689   3.844000
    50  H    0.355165  -0.000002
    51  H    0.130942   0.000140
    52  H    0.108766   0.000011
    53  H    0.129376  -0.000058
    54  H    0.138009  -0.000077
    55  H    0.349921  -0.000001
    56  H    0.128305   0.000019
    57  H    0.147176   0.000073
    58  H    0.114636   0.000184
    59  H    0.132655  -0.000087
    60  H    0.115752  -0.000216
    61  H    0.143645   0.000480
    62  H    0.133200   0.000271
    63  H    0.130433   0.000277
    64  H    0.109754  -0.001199
    65  H    0.141337   0.002014
    66  H    0.120419   0.001349
    67  H    0.119298  -0.000444
    68  H    0.103536   0.000109
    69  H    0.145599  -0.000039
    70  H    0.143873  -0.000137
    71  H    0.131624  -0.000212
    72  H    0.077425  -0.000117
    73  H    0.149698   0.001050
    74  H    0.234004   0.001359
    75  H    0.175410   0.001302
    76  H    0.152602   0.000017
    77  H    0.132482   0.000112
    78  H    0.146834   0.000023
    79  H    0.137682   0.000402
    80  H    0.142121   0.000424
    81  H    0.125869  -0.000028
    82  H    0.115487  -0.007158
    83  H    0.136884   0.007668
    84  H    0.128537   0.007123
    85  H    0.135585  -0.000902
    86  H    0.141503  -0.000924
    87  H    0.109467   0.000784
 Sum of Mulliken charges =  -0.00000   4.00000

 Dipole moment (field-independent basis, Debye):
    X=             -2.8202    Y=              2.9852    Z=              3.5321  Tot=              5.4167
 Quadrupole moment (field-independent basis, Debye-Ang):
   XX=           -308.9028   YY=           -261.5894   ZZ=           -264.2995
   XY=             17.3214   XZ=            -37.7406   YZ=              8.7811

 Summary of Natural Population Analysis:

                                       Natural Population
                Natural  -----------------------------------------------
    Atom  No    Charge         Core      Valence    Rydberg      Total
 -----------------------------------------------------------------------
      C    1   -0.31707      0.99969     2.31433    0.00305     3.31707
      C    2    0.05408      0.99960     1.93791    0.00841     2.94592
      N    3   -0.23091      0.99965     2.72100    0.01027     3.73091
      C    4   -0.02775      0.99954     2.01814    0.01007     3.02775
      C    5    0.08488      0.99970     1.90505    0.01037     2.91512
      N    6   -0.19827      0.99970     2.67875    0.01981     3.69827
      C    7   -0.09453      0.99956     2.08729    0.00768     3.09453
      C    8   -0.08891      0.99956     2.08174    0.00762     3.08891
      C    9   -0.10468      0.99956     2.09748    0.00765     3.10468
      C   10   -0.09634      0.99955     2.08908    0.00771     3.09634
      C   11    0.06989      0.99947     1.92005    0.01059     2.93011
      C   12   -0.02191      0.99940     2.01285    0.00966     3.02191
      C   13   -0.00131      0.99944     1.99327    0.00860     3.00131
      C   14    0.05712      0.99949     1.93258    0.01081     2.94288
      C   15   -0.32002      0.99970     2.31670    0.00361     3.32002
      C   16   -0.20545      0.99966     2.19928    0.00652     3.20545
      C   17   -0.24640      0.99962     2.23855    0.00822     3.24640
      C   18    0.38239      0.99978     1.59825    0.01959     2.61761
      O   19   -0.33505      0.99978     3.32036    0.01491     4.33505
      O   20   -0.29606      0.99989     3.28347    0.01271     4.29606
      C   21    0.05383      0.99951     1.93587    0.01079     2.94617
      C   22    0.03129      0.99945     1.96046    0.00880     2.96871
      C   23   -0.07508      0.99946     2.06488    0.01074     3.07508
      C   24    0.09203      0.99953     1.89759    0.01085     2.90797
      C   25   -0.31840      0.99970     2.31475    0.00395     3.31840
      C   26   -0.05483      0.99961     2.04550    0.00971     3.05483
      C   27   -0.26048      0.99972     2.25345    0.00732     3.26048
      C   28    0.06978      0.99950     1.92014    0.01058     2.93022
      C   29    0.00832      0.99944     1.98361    0.00862     2.99168
      C   30   -0.05730      0.99945     2.04763    0.01022     3.05730
      C   31    0.08175      0.99953     1.90799    0.01073     2.91825
      C   32   -0.32087      0.99970     2.31755    0.00362     3.32087
      C   33   -0.09545      0.99964     2.08850    0.00730     3.09545
      C   34   -0.19438      0.99973     2.18864    0.00601     3.19438
      C   35    0.06106      0.99948     1.92861    0.01085     2.93894
      C   36   -0.00666      0.99940     1.99866    0.00859     3.00666
      C   37   -0.01622      0.99943     2.00741    0.00938     3.01622
      C   38    0.06886      0.99950     1.92115    0.01049     2.93114
      C   39   -0.31793      0.99970     2.31453    0.00370     3.31793
      C   40   -0.21055      0.99967     2.20303    0.00784     3.21055
      C   41   -0.25701      0.99962     2.24899    0.00840     3.25701
      C   42    0.38586      0.99976     1.59559    0.01880     2.61414
      O   43   -0.33249      0.99976     3.31628    0.01644     4.33249
      O   44   -0.28417      0.99988     3.27199    0.01229     4.28417
      N   45   -0.22174      0.99967     2.70232    0.01976     3.72174
      N   46   -0.22215      0.99967     2.70323    0.01925     3.72215
      N   47   -0.21805      0.99967     2.69880    0.01959     3.71805
      N   48   -0.22484      0.99968     2.70582    0.01933     3.72484
     Fe   49    2.25897      8.99546     1.73075    0.01481    10.74103
      H   50    0.25851      0.00000     0.24016    0.00132     0.24149
      H   51    0.11738      0.00000     0.38191    0.00071     0.38262
      H   52    0.10894      0.00000     0.39029    0.00077     0.39106
      H   53    0.10739      0.00000     0.39142    0.00118     0.39261
      H   54    0.10922      0.00000     0.38996    0.00083     0.39078
      H   55    0.25628      0.00000     0.24255    0.00117     0.24372
      H   56    0.11189      0.00000     0.38738    0.00073     0.38811
      H   57    0.11265      0.00000     0.38657    0.00078     0.38735
      H   58    0.11303      0.00000     0.38620    0.00076     0.38697
      H   59    0.11143      0.00000     0.38752    0.00106     0.38857
      H   60    0.10171      0.00000     0.39699    0.00131     0.39829
      H   61    0.11091      0.00000     0.38828    0.00081     0.38909
      H   62    0.10966      0.00000     0.38955    0.00080     0.39034
      H   63    0.10894      0.00000     0.39037    0.00069     0.39106
      H   64    0.10140      0.00000     0.39722    0.00137     0.39860
      H   65    0.11664      0.00000     0.38240    0.00095     0.38336
      H   66    0.11156      0.00000     0.38766    0.00078     0.38844
      H   67    0.10662      0.00000     0.39274    0.00064     0.39338
      H   68    0.10087      0.00000     0.39763    0.00150     0.39913
      H   69    0.11547      0.00000     0.38363    0.00090     0.38453
      H   70    0.11057      0.00000     0.38863    0.00080     0.38943
      H   71    0.10944      0.00000     0.38977    0.00079     0.39056
      H   72    0.10094      0.00000     0.39787    0.00118     0.39906
      H   73    0.11405      0.00000     0.38523    0.00072     0.38595
      H   74    0.20878      0.00000     0.29035    0.00087     0.29122
      H   75    0.11564      0.00000     0.38342    0.00094     0.38436
      H   76    0.11856      0.00000     0.38096    0.00048     0.38144
      H   77    0.10904      0.00000     0.39027    0.00069     0.39096
      H   78    0.11148      0.00000     0.38781    0.00071     0.38852
      H   79    0.10997      0.00000     0.38924    0.00079     0.39003
      H   80    0.11154      0.00000     0.38767    0.00079     0.38846
      H   81    0.10894      0.00000     0.39045    0.00061     0.39106
      H   82    0.10171      0.00000     0.39745    0.00084     0.39829
      H   83    0.10101      0.00000     0.39815    0.00084     0.39899
      H   84    0.09779      0.00000     0.40134    0.00087     0.40221
      H   85    0.09922      0.00000     0.40009    0.00069     0.40078
      H   86    0.09505      0.00000     0.40412    0.00083     0.40495
      H   87    0.09888      0.00000     0.40011    0.00101     0.40112
 =======================================================================
   * Total *    2.00000     56.97665   123.47323    0.55012   181.00000

 Normal termination of Gaussian 16 at Mon Dec  5 12:14:05 2022.
