 Gaussian 16, Revision A.03,

 ----------------------------------------------------------------------
 # PBE1PBE/def2TZVP empiricaldispersion=GD3BJ int=(grid=ultrafine) geom
 =check pop=nbo
 ----------------------------------------------------------------------

 ----------
 1c6r_III_D
 ----------
 Structure from the checkpoint file:  "1c6r_III_D.chk"
 Charge =  1 Multiplicity = 2

 SCF Done:  E(UPBE1PBE) =  -3879.23443860     A.U. after  104 cycles

 Summary of Natural Population Analysis:

                                       Natural Population
                Natural  -----------------------------------------------
    Atom  No    Charge         Core      Valence    Rydberg      Total
 -----------------------------------------------------------------------
      C    1   -0.32101      0.99969     2.31823    0.00309     3.32101
      C    2    0.06167      0.99955     1.92984    0.00895     2.93833
      N    3   -0.23369      0.99968     2.72411    0.00990     3.73369
      C    4   -0.03581      0.99943     2.02704    0.00934     3.03581
      C    5    0.10638      0.99965     1.88299    0.01098     2.89362
      N    6   -0.18199      0.99968     2.65699    0.02532     3.68199
      C    7   -0.30717      0.99972     2.30141    0.00604     3.30717
      C    8   -0.26448      0.99965     2.25574    0.00909     3.26448
      S    9    0.26543      4.99951     2.71762    0.01743     7.73457
      C   10   -0.36230      0.99963     2.35424    0.00844     3.36230
      C   11   -0.13224      0.99949     2.12395    0.00880     3.13224
      C   12   -0.11052      0.99951     2.10313    0.00789     3.11052
      C   13   -0.11465      0.99948     2.10680    0.00837     3.11465
      C   14   -0.12136      0.99948     2.11370    0.00818     3.12136
      C   15    0.08365      0.99951     1.90652    0.01031     2.91635
      C   16    0.00027      0.99943     1.99112    0.00917     2.99973
      C   17    0.00422      0.99945     1.98853    0.00780     2.99578
      C   18    0.07831      0.99953     1.91195    0.01021     2.92169
      C   19   -0.31937      0.99969     2.31612    0.00355     3.31937
      C   20   -0.21570      0.99966     2.20931    0.00672     3.21570
      C   21   -0.24648      0.99963     2.23850    0.00836     3.24648
      C   22    0.37960      0.99978     1.60251    0.01812     2.62040
      O   23   -0.30257      0.99990     3.29066    0.01201     4.30257
      O   24   -0.32191      0.99981     3.30889    0.01321     4.32191
      C   25    0.07188      0.99951     1.91778    0.01083     2.92812
      C   26    0.00234      0.99943     1.98977    0.00846     2.99766
      C   27   -0.05412      0.99942     2.04345    0.01124     3.05412
      C   28    0.08417      0.99950     1.90572    0.01061     2.91583
      C   29   -0.31667      0.99970     2.31315    0.00382     3.31667
      C   30   -0.10706      0.99964     2.09771    0.00971     3.10706
      C   31   -0.16917      0.99970     2.16415    0.00532     3.16917
      C   32    0.07826      0.99950     1.91210    0.01013     2.92174
      C   33    0.02020      0.99942     1.97201    0.00837     2.97980
      C   34   -0.04698      0.99940     2.03584    0.01174     3.04698
      C   35    0.09868      0.99952     1.89158    0.01022     2.90132
      C   36   -0.32371      0.99970     2.32043    0.00359     3.32371
      C   37   -0.10954      0.99963     2.09991    0.01000     3.10954
      C   38   -0.16541      0.99971     2.16017    0.00553     3.16541
      C   39    0.08324      0.99952     1.90687    0.01037     2.91676
      C   40   -0.00691      0.99943     1.99938    0.00809     3.00691
      C   41   -0.01234      0.99943     2.00372    0.00919     3.01234
      C   42    0.08059      0.99952     1.90923    0.01066     2.91941
      C   43   -0.32202      0.99969     2.31578    0.00655     3.32202
      C   44   -0.21175      0.99965     2.20511    0.00699     3.21175
      C   45   -0.24456      0.99962     2.23650    0.00844     3.24456
      C   46    0.38128      0.99977     1.60041    0.01855     2.61872
      O   47   -0.29787      0.99989     3.28601    0.01197     4.29787
      O   48   -0.32963      0.99980     3.31556    0.01428     4.32963
      N   49   -0.20014      0.99966     2.67945    0.02103     3.70014
      N   50   -0.22204      0.99966     2.69503    0.02735     3.72204
      N   51   -0.18920      0.99967     2.66819    0.02134     3.68920
      N   52   -0.22754      0.99969     2.70065    0.02721     3.72754
     Fe   53    0.65530      8.99490     3.32346    0.02634    12.34470
      H   54    0.26068      0.00000     0.23795    0.00137     0.23932
      H   55    0.12165      0.00000     0.37768    0.00066     0.37835
      H   56    0.11620      0.00000     0.38317    0.00063     0.38380
      H   57    0.11622      0.00000     0.38292    0.00086     0.38378
      H   58    0.11228      0.00000     0.38700    0.00072     0.38772
      H   59    0.11387      0.00000     0.38545    0.00068     0.38613
      H   60    0.11606      0.00000     0.38324    0.00070     0.38394
      H   61    0.11328      0.00000     0.38605    0.00067     0.38672
      H   62    0.11126      0.00000     0.38732    0.00141     0.38874
      H   63    0.10802      0.00000     0.39141    0.00057     0.39198
      H   64    0.11439      0.00000     0.38488    0.00073     0.38561
      H   65    0.11706      0.00000     0.38224    0.00070     0.38294
      H   66    0.09855      0.00000     0.40054    0.00091     0.40145
      H   67    0.10484      0.00000     0.39448    0.00068     0.39516
      H   68    0.10985      0.00000     0.38927    0.00088     0.39015
      H   69    0.11617      0.00000     0.38256    0.00127     0.38383
      H   70    0.11363      0.00000     0.38566    0.00072     0.38637
      H   71    0.11509      0.00000     0.38422    0.00069     0.38491
      H   72    0.11795      0.00000     0.38130    0.00075     0.38205
      H   73    0.10378      0.00000     0.39551    0.00071     0.39622
      H   74    0.09995      0.00000     0.39917    0.00088     0.40005
      H   75    0.11144      0.00000     0.38766    0.00090     0.38856
      H   76    0.11773      0.00000     0.38100    0.00128     0.38227
      H   77    0.11630      0.00000     0.38302    0.00067     0.38370
      H   78    0.11341      0.00000     0.38611    0.00047     0.38659
      H   79    0.11495      0.00000     0.38444    0.00061     0.38505
      H   80    0.11238      0.00000     0.38641    0.00121     0.38762
      H   81    0.11438      0.00000     0.38452    0.00110     0.38562
      H   82    0.11270      0.00000     0.38654    0.00076     0.38730
      H   83    0.11687      0.00000     0.38249    0.00064     0.38313
      H   84    0.11060      0.00000     0.38866    0.00074     0.38940
      H   85    0.26036      0.00000     0.23836    0.00128     0.23964
      H   86    0.11111      0.00000     0.38781    0.00108     0.38889
      H   87    0.10955      0.00000     0.38986    0.00059     0.39045
      H   88    0.11319      0.00000     0.38626    0.00055     0.38681
      H   89    0.10820      0.00000     0.39084    0.00095     0.39180
      H   90    0.11558      0.00000     0.38363    0.00079     0.38442
      H   91    0.11141      0.00000     0.38773    0.00086     0.38859
      H   92    0.11609      0.00000     0.38331    0.00061     0.38391
      H   93    0.12446      0.00000     0.37506    0.00048     0.37554
      H   94    0.11488      0.00000     0.38448    0.00064     0.38512
      H   95    0.12030      0.00000     0.37925    0.00045     0.37970
      H   96    0.11567      0.00000     0.38368    0.00065     0.38433
      H   97    0.21392      0.00000     0.28534    0.00074     0.28608
      H   98    0.11640      0.00000     0.38282    0.00079     0.38360
      H   99    0.11978      0.00000     0.37941    0.00081     0.38022
 =======================================================================
   * Total *    1.00000     64.97421   137.39974    0.62606   203.00000

 Normal termination of Gaussian 16 at Sat Jan 21 18:53:39 2023.
 Gaussian 16:  ES64L-G16RevA.03 25-Dec-2016

 ----------------------------------------------------------------------
 # PBE1PBE/def2TZVP empiricaldispersion=GD3BJ int=(grid=ultrafine) geom
 =check guess=read scrf=(smd,solvent=Chloroform)
 ----------------------------------------------------------------------

 ---------------
 1c6r_III_D_solv
 ---------------
 Structure from the checkpoint file:  "1c6r_III_D.chk"
 Charge =  1 Multiplicity = 2

                         Standard orientation:
 ---------------------------------------------------------------------
 Center     Atomic      Atomic             Coordinates (Angstroms)
 Number     Number       Type             X           Y           Z
 ---------------------------------------------------------------------
      1          6           0        2.736242   -1.776043    4.898489
      2          6           0        1.883989   -1.152163    3.834226
      3          7           0        0.549537   -0.869223    4.024381
      4          6           0        2.163217   -0.809694    2.554077
      5          6           0        0.037210   -0.387008    2.905909
      6          7           0        0.996331   -0.339799    1.998544
      7          6           0       -1.121194    2.447425   -2.919353
      8          6           0       -0.477081    1.206254   -3.522607
      9         16           0        0.855251    0.546857   -2.529984
     10          6           0        1.307309   -0.917554   -3.518704
     11          6           0       -2.452476   -0.302014   -0.004859
     12          6           0        1.190179   -3.341197   -0.705720
     13          6           0        4.205773    0.356876   -0.436711
     14          6           0        0.636291    3.287494    0.979221
     15          6           0       -1.751367   -1.480337   -0.183986
     16          6           0       -2.369027   -2.801194   -0.339528
     17          6           0       -1.326576   -3.648109   -0.638721
     18          6           0       -0.109593   -2.852222   -0.564296
     19          6           0       -1.395852   -5.121432   -1.039331
     20          6           0       -3.890341   -3.101707   -0.156806
     21          6           0       -4.402298   -3.010647    1.296247
     22          6           0       -5.923453   -3.084036    1.415627
     23          8           0       -6.419370   -3.374962    2.534089
     24          8           0       -6.627206   -2.826887    0.413953
     25          6           0        2.363236   -2.586173   -0.693935
     26          6           0        3.684907   -3.108953   -0.876683
     27          6           0        4.539660   -2.057220   -0.897027
     28          6           0        3.703305   -0.905992   -0.689675
     29          6           0        4.015606   -4.589969   -1.003218
     30          6           0        5.937894   -2.043612   -1.123315
     31          6           0        6.478357   -2.342578   -2.385349
     32          6           0        3.518583    1.453110    0.004053
     33          6           0        4.119993    2.723094    0.359285
     34          6           0        3.133375    3.516717    0.820229
     35          6           0        1.911080    2.758917    0.732570
     36          6           0        5.615681    2.986007    0.419954
     37          6           0        3.267557    4.758189    1.472659
     38          6           0        3.635550    5.918056    0.757325
     39          6           0       -0.536506    2.603013    0.713125
     40          6           0       -1.897794    3.166591    0.757848
     41          6           0       -2.755821    2.174098    0.414640
     42          6           0       -1.932585    0.976801    0.181374
     43          6           0       -2.273862    4.556564    1.186588
     44          6           0       -4.256939    2.257772    0.280854
     45          6           0       -4.600448    2.323799   -1.190363
     46          6           0       -6.052051    2.705642   -1.427561
     47          8           0       -6.927044    1.812214   -1.431703
     48          8           0       -6.342982    3.905097   -1.580619
     49          7           0       -0.390255   -1.522294   -0.311070
     50          7           0        2.390691   -1.235478   -0.545656
     51          7           0        2.168352    1.465181    0.237144
     52          7           0       -0.581066    1.253457    0.288007
     53         26           0        0.900382   -0.022733   -0.086298
     54          1           0       -7.558144   -3.061246    0.408417
     55          1           0       -3.976441   -3.814701    1.859312
     56          1           0       -4.071037   -2.084546    1.717558
     57          1           0       -4.444431   -2.407006   -0.752856
     58          1           0       -4.084250   -4.089127   -0.520538
     59          1           0       -2.376239   -5.500001   -0.838268
     60          1           0       -1.183695   -5.217435   -2.083684
     61          1           0       -0.676122   -5.678309   -0.476503
     62          1           0        1.297200   -4.397853   -0.835818
     63          1           0        3.126999   -5.167652   -0.856384
     64          1           0        4.410848   -4.785133   -1.978203
     65          1           0        4.741345   -4.857795   -0.263980
     66          1           0        5.944017   -2.979497   -3.058932
     67          1           0        7.424277   -1.933331   -2.672842
     68          1           0        6.596599   -1.800465   -0.315919
     69          1           0        5.253742    0.491703   -0.605477
     70          1           0        6.089599    2.218821    0.995911
     71          1           0        6.018030    2.987664   -0.571516
     72          1           0        5.792415    3.936636    0.878179
     73          1           0        3.256084    6.873171    1.055084
     74          1           0        4.293970    5.842170   -0.082690
     75          1           0        3.087938    4.822748    2.525498
     76          1           0        0.566579    4.271059    1.394719
     77          1           0       -2.613809    4.537223    2.200966
     78          1           0       -1.420296    5.197070    1.108631
     79          1           0       -3.055310    4.925316    0.555509
     80          1           0       -3.519477   -0.381915   -0.009894
     81          1           0       -4.706814    1.390762    0.717667
     82          1           0       -4.614533    3.137171    0.774498
     83          1           0       -4.417467    1.366561   -1.632078
     84          1           0       -3.970141    3.049130   -1.661010
     85          1           0       -7.113335    4.272077   -1.140754
     86          1           0       -1.458655    2.228068   -1.927939
     87          1           0       -0.403746    3.240496   -2.884612
     88          1           0       -1.953732    2.745753   -3.521667
     89          1           0       -1.226906    0.451216   -3.634769
     90          1           0       -0.093008    1.455220   -4.489769
     91          1           0        0.470968   -1.582677   -3.573893
     92          1           0        1.584199   -0.610067   -4.505458
     93          1           0        2.131968   -1.419047   -3.056814
     94          1           0        2.250615   -2.651209    5.276841
     95          1           0        3.684772   -2.045819    4.483264
     96          1           0        2.881521   -1.076311    5.694836
     97          1           0        0.046076   -1.007408    4.877278
     98          1           0       -0.979338   -0.086520    2.760176
     99          1           0        3.112514   -0.889636    2.066897
 ---------------------------------------------------------------------

 SCF Done:  E(UPBE1PBE) =  -3879.33419221     A.U. after   80 cycles

 Alpha virt. eigenvalues --    0.99315   0.99388   0.99487   0.99944   1.00190
 Alpha virt. eigenvalues --    1.00516   1.00730   1.01420   1.01620   1.01809
 Alpha virt. eigenvalues --    1.02061   1.02298   1.02392   1.02639   1.02783

  Beta  occ. eigenvalues -- -256.43964 -89.06333 -30.20370 -26.03415 -26.03256
  Beta  occ. eigenvalues --  -26.02471 -19.27930 -19.27170 -19.19128 -19.18952
  Beta  occ. eigenvalues --  -14.46670 -14.43422 -14.41799 -14.41793 -14.41670
  Beta  occ. eigenvalues --  -14.41294 -10.36981 -10.36552 -10.31064 -10.28619
  Beta  occ. eigenvalues --  -10.28509 -10.28407 -10.28315 -10.28264 -10.28220
  Beta  occ. eigenvalues --  -10.27748 -10.27601 -10.27481 -10.26526 -10.26059
  Beta  occ. eigenvalues --  -10.25940 -10.25871 -10.25516 -10.25346 -10.25346
  Beta  occ. eigenvalues --  -10.25274 -10.25038 -10.25024 -10.24903 -10.24885
  Beta  occ. eigenvalues --  -10.24796 -10.24643 -10.24573 -10.24564 -10.24534
  Beta  occ. eigenvalues --  -10.24480 -10.24426 -10.24310 -10.24248 -10.24114
  Beta  occ. eigenvalues --  -10.24003 -10.23401 -10.22802 -10.22543 -10.22406
  Beta  occ. eigenvalues --  -10.22296 -10.22014  -8.04103  -5.97728  -5.97476
  Beta  occ. eigenvalues --   -5.96982  -3.52714  -2.28497  -2.27608  -2.27275
  Beta  occ. eigenvalues --   -1.18317  -1.18288  -1.09269  -1.03770  -1.03447
  Beta  occ. eigenvalues --   -1.02045  -1.00608  -1.00286  -0.98939  -0.93769
  Beta  occ. eigenvalues --   -0.86795  -0.86697  -0.86346  -0.86121  -0.85552
  Beta  occ. eigenvalues --   -0.85126  -0.83859  -0.83540  -0.83208  -0.81639
  Beta  occ. eigenvalues --   -0.81082  -0.79408  -0.78816  -0.78604  -0.78195
  Beta  occ. eigenvalues --   -0.76130  -0.74733  -0.74348  -0.74154  -0.73515
  Beta  occ. eigenvalues --   -0.71810  -0.71674  -0.71337  -0.69667  -0.68519
  Beta  occ. eigenvalues --   -0.68374  -0.66996  -0.66922  -0.66395  -0.64814
  Beta  occ. eigenvalues --   -0.64623  -0.64394  -0.62980  -0.61977  -0.60662
  Beta  occ. eigenvalues --   -0.58936  -0.58350  -0.57550  -0.57229  -0.56402
  Beta  occ. eigenvalues --   -0.55137  -0.54934  -0.54537  -0.53585  -0.53091
  Beta  occ. eigenvalues --   -0.52373  -0.52142  -0.51850  -0.51398  -0.51013
  Beta  occ. eigenvalues --   -0.50696  -0.50564  -0.50355  -0.50264  -0.50171
  Beta  occ. eigenvalues --   -0.49231  -0.48718  -0.48351  -0.47985  -0.47812
  Beta  occ. eigenvalues --   -0.47312  -0.47135  -0.47080  -0.46812  -0.46568
  Beta  occ. eigenvalues --   -0.46249  -0.46014  -0.45706  -0.45520  -0.45438
  Beta  occ. eigenvalues --   -0.44990  -0.44917  -0.44789  -0.44354  -0.44271
  Beta  occ. eigenvalues --   -0.43903  -0.43858  -0.43797  -0.43192  -0.42913
  Beta  occ. eigenvalues --   -0.42755  -0.42387  -0.42232  -0.42177  -0.41767
  Beta  occ. eigenvalues --   -0.41595  -0.41460  -0.41146  -0.40777  -0.40678
  Beta  occ. eigenvalues --   -0.40523  -0.40380  -0.40084  -0.39816  -0.39577
  Beta  occ. eigenvalues --   -0.39349  -0.38992  -0.38757  -0.38734  -0.38571
  Beta  occ. eigenvalues --   -0.38261  -0.38157  -0.37560  -0.37105  -0.37059
  Beta  occ. eigenvalues --   -0.36275  -0.35791  -0.35422  -0.35135  -0.34172
  Beta  occ. eigenvalues --   -0.33963  -0.33619  -0.31965  -0.31109  -0.30846
  Beta  occ. eigenvalues --   -0.30516  -0.29471  -0.29403  -0.28927  -0.28600
  Beta  occ. eigenvalues --   -0.28125  -0.27237  -0.26548  -0.26355  -0.25349
  Beta  occ. eigenvalues --   -0.25230  -0.22303  -0.21810
  Beta virt. eigenvalues --   -0.12583  -0.10138  -0.09222  -0.08571  -0.04986
  Beta virt. eigenvalues --   -0.04294  -0.03466  -0.02666  -0.01303  -0.00406
  Beta virt. eigenvalues --   -0.00209   0.00697   0.01202   0.01359   0.02474

 Mulliken charges and spin densities:
               1          2
     1  C   -0.399970  -0.000554
     2  C    0.146038  -0.001088
     3  N   -0.186273   0.001402
     4  C   -0.221627   0.001853
     5  C    0.021362   0.008440
     6  N   -0.024139  -0.039117
     7  C   -0.335730   0.000320
     8  C   -0.204190  -0.002177
     9  S    0.032609  -0.011617
    10  C   -0.381561   0.002962
    11  C   -0.603210  -0.008731
    12  C   -0.502843  -0.001760
    13  C   -0.478830  -0.004788
    14  C   -0.540387  -0.009117
    15  C    0.272483   0.010982
    16  C   -0.002587   0.011022
    17  C   -0.066548   0.013354
    18  C    0.227887   0.004187
    19  C   -0.423724  -0.001278
    20  C   -0.330285  -0.001559
    21  C   -0.206982   0.000478
    22  C    0.288039   0.000029
    23  O   -0.440133   0.000069
    24  O   -0.327542  -0.000003
    25  C    0.318909   0.002598
    26  C   -0.082189  -0.001490
    27  C    0.089933  -0.003280
    28  C    0.195180   0.004043
    29  C   -0.405991  -0.000073
    30  C   -0.288095   0.002636
    31  C   -0.305052  -0.003290
    32  C    0.267702   0.002265
    33  C   -0.095187   0.016301
    34  C    0.104312   0.009147
    35  C    0.204543   0.009822
    36  C   -0.405925  -0.001476
    37  C   -0.303825  -0.006467
    38  C   -0.308300   0.007933
    39  C    0.330953   0.006850
    40  C   -0.031285  -0.000712
    41  C    0.040040  -0.001053
    42  C    0.230016   0.008363
    43  C   -0.452242  -0.000310
    44  C   -0.338805  -0.000218
    45  C   -0.176058  -0.000017
    46  C    0.296138   0.000001
    47  O   -0.429183  -0.000029
    48  O   -0.343095  -0.000001
    49  N    0.034289  -0.038688
    50  N   -0.008762  -0.023022
    51  N    0.056394  -0.035215
    52  N    0.033270  -0.035989
    53  Fe  -0.381604   1.107330
    54  H    0.380998   0.000007
    55  H    0.153970   0.000030
    56  H    0.152364  -0.000015
    57  H    0.149171   0.000411
    58  H    0.148097  -0.000004
    59  H    0.153225  -0.000068
    60  H    0.161402   0.000704
    61  H    0.153993   0.000533
    62  H    0.150708  -0.000038
    63  H    0.143676  -0.000003
    64  H    0.152673   0.000057
    65  H    0.154225  -0.000168
    66  H    0.164598   0.000156
    67  H    0.169874   0.000173
    68  H    0.166401  -0.000208
    69  H    0.169045   0.000100
    70  H    0.153382   0.000708
    71  H    0.156331   0.000712
    72  H    0.159751   0.000021
    73  H    0.169194  -0.000319
    74  H    0.173369  -0.000394
    75  H    0.168577   0.000624
    76  H    0.165090   0.000325
    77  H    0.163001   0.000165
    78  H    0.153231   0.000010
    79  H    0.157932  -0.000143
    80  H    0.173800   0.000166
    81  H    0.140889  -0.000037
    82  H    0.153644  -0.000020
    83  H    0.139685   0.000021
    84  H    0.141283   0.000003
    85  H    0.388649   0.000000
    86  H    0.099977  -0.000011
    87  H    0.136847   0.000070
    88  H    0.147857  -0.000034
    89  H    0.144550   0.000684
    90  H    0.163073  -0.001758
    91  H    0.162441   0.000022
    92  H    0.181739  -0.000462
    93  H    0.177715  -0.000103
    94  H    0.156749  -0.000042
    95  H    0.160574  -0.000021
    96  H    0.158414  -0.000030
    97  H    0.285497  -0.000175
    98  H    0.200790  -0.000605
    99  H    0.183613  -0.000316
 Sum of Mulliken charges =   1.00000   1.00000

 Dipole moment (field-independent basis, Debye):
    X=              4.5334    Y=              0.7315    Z=              1.9145  Tot=              4.9752
 Quadrupole moment (field-independent basis, Debye-Ang):
   XX=           -275.7357   YY=           -254.0606   ZZ=           -269.3299
   XY=            -25.7456   XZ=             14.3665   YZ=             13.2817

 Normal termination of Gaussian 16 at Mon Jan 23 06:55:14 2023.
