 Gaussian 16, Revision A.03,

 ----------------------------------------------------------------------
 # PBE1PBE/def2TZVP scf=maxcycle=999 empiricaldispersion=GD3BJ int=(gri
 d=ultrafine) geom=check pop=nbo
 ----------------------------------------------------------------------

 ----------
 1c6r_III_H
 ----------
 Structure from the checkpoint file:  "1c6r_III_H.chk"
 Charge =  1 Multiplicity = 6

 SCF Done:  E(UPBE1PBE) =  -3879.23646195     A.U. after   33 cycles

 Summary of Natural Population Analysis:

                                       Natural Population
                Natural  -----------------------------------------------
    Atom  No    Charge         Core      Valence    Rydberg      Total
 -----------------------------------------------------------------------
      C    1   -0.32077      0.99970     2.31775    0.00332     3.32077
      C    2    0.06571      0.99954     1.92597    0.00878     2.93429
      N    3   -0.23177      0.99968     2.72252    0.00958     3.73177
      C    4   -0.03541      0.99942     2.02700    0.00899     3.03541
      C    5    0.10648      0.99964     1.88321    0.01068     2.89352
      N    6   -0.15104      0.99971     2.62900    0.02233     3.65104
      C    7   -0.30639      0.99972     2.30033    0.00634     3.30639
      C    8   -0.25763      0.99965     2.24859    0.00938     3.25763
      S    9    0.30240      4.99931     2.67805    0.02024     7.69760
      C   10   -0.35946      0.99963     2.35159    0.00824     3.35946
      C   11   -0.13052      0.99948     2.12274    0.00830     3.13052
      C   12   -0.11007      0.99951     2.10301    0.00755     3.11007
      C   13   -0.10848      0.99935     2.10023    0.00890     3.10848
      C   14   -0.12109      0.99948     2.11391    0.00770     3.12109
      C   15    0.09172      0.99950     1.89865    0.01013     2.90828
      C   16    0.00435      0.99943     1.98729    0.00893     2.99565
      C   17    0.00818      0.99945     1.98450    0.00787     2.99182
      C   18    0.08604      0.99951     1.90443    0.01001     2.91396
      C   19   -0.31916      0.99969     2.31595    0.00352     3.31916
      C   20   -0.21550      0.99966     2.20909    0.00674     3.21550
      C   21   -0.24640      0.99962     2.23842    0.00835     3.24640
      C   22    0.37957      0.99978     1.60254    0.01811     2.62043
      O   23   -0.30245      0.99990     3.29055    0.01201     4.30245
      O   24   -0.32193      0.99981     3.30892    0.01320     4.32193
      C   25    0.08265      0.99950     1.90750    0.01035     2.91735
      C   26    0.01767      0.99942     1.97461    0.00830     2.98233
      C   27   -0.03837      0.99942     2.02786    0.01109     3.03837
      C   28    0.09355      0.99949     1.89635    0.01060     2.90645
      C   29   -0.31702      0.99970     2.31351    0.00381     3.31702
      C   30   -0.11278      0.99963     2.10346    0.00969     3.11278
      C   31   -0.16121      0.99970     2.15629    0.00522     3.16121
      C   32    0.08397      0.99949     1.90621    0.01033     2.91603
      C   33    0.02614      0.99942     1.96629    0.00815     2.97386
      C   34   -0.04422      0.99939     2.03330    0.01153     3.04422
      C   35    0.11080      0.99951     1.87966    0.01003     2.88920
      C   36   -0.32366      0.99970     2.32037    0.00359     3.32366
      C   37   -0.11081      0.99963     2.10120    0.00998     3.11081
      C   38   -0.16339      0.99971     2.15820    0.00548     3.16339
      C   39    0.09438      0.99951     1.89575    0.01036     2.90562
      C   40    0.01195      0.99927     1.97814    0.01064     2.98805
      C   41   -0.00111      0.99943     1.99235    0.00933     3.00111
      C   42    0.09224      0.99950     1.89801    0.01025     2.90776
      C   43   -0.32309      0.99970     2.31735    0.00604     3.32309
      C   44   -0.21159      0.99965     2.20556    0.00638     3.21159
      C   45   -0.24391      0.99962     2.23594    0.00835     3.24391
      C   46    0.38132      0.99977     1.60039    0.01853     2.61868
      O   47   -0.29733      0.99989     3.28547    0.01197     4.29733
      O   48   -0.32953      0.99980     3.31548    0.01425     4.32953
      N   49   -0.19052      0.99969     2.66953    0.02130     3.69052
      N   50   -0.19864      0.99968     2.67823    0.02073     3.69864
      N   51   -0.18112      0.99969     2.66118    0.02025     3.68112
      N   52   -0.19491      0.99970     2.67497    0.02024     3.69491
     Fe   53    2.32478      8.99491     1.63454    0.04578    10.67522
      H   54    0.26071      0.00000     0.23793    0.00137     0.23929
      H   55    0.12175      0.00000     0.37759    0.00066     0.37825
      H   56    0.11612      0.00000     0.38325    0.00063     0.38388
      H   57    0.11618      0.00000     0.38297    0.00085     0.38382
      H   58    0.11239      0.00000     0.38689    0.00072     0.38761
      H   59    0.11408      0.00000     0.38525    0.00067     0.38592
      H   60    0.11622      0.00000     0.38308    0.00070     0.38378
      H   61    0.11316      0.00000     0.38617    0.00067     0.38684
      H   62    0.11246      0.00000     0.38616    0.00138     0.38754
      H   63    0.10863      0.00000     0.39081    0.00056     0.39137
      H   64    0.11551      0.00000     0.38377    0.00071     0.38449
      H   65    0.11801      0.00000     0.38130    0.00069     0.38199
      H   66    0.09851      0.00000     0.40059    0.00090     0.40149
      H   67    0.10521      0.00000     0.39412    0.00068     0.39479
      H   68    0.11110      0.00000     0.38803    0.00087     0.38890
      H   69    0.11722      0.00000     0.38157    0.00121     0.38278
      H   70    0.11365      0.00000     0.38564    0.00071     0.38635
      H   71    0.11521      0.00000     0.38410    0.00069     0.38479
      H   72    0.11815      0.00000     0.38111    0.00074     0.38185
      H   73    0.10374      0.00000     0.39554    0.00071     0.39626
      H   74    0.09992      0.00000     0.39920    0.00088     0.40008
      H   75    0.11154      0.00000     0.38757    0.00089     0.38846
      H   76    0.11893      0.00000     0.37983    0.00124     0.38107
      H   77    0.11725      0.00000     0.38209    0.00066     0.38275
      H   78    0.11388      0.00000     0.38565    0.00047     0.38612
      H   79    0.11560      0.00000     0.38379    0.00060     0.38440
      H   80    0.11352      0.00000     0.38535    0.00113     0.38648
      H   81    0.11503      0.00000     0.38388    0.00109     0.38497
      H   82    0.11178      0.00000     0.38717    0.00105     0.38822
      H   83    0.11716      0.00000     0.38220    0.00064     0.38284
      H   84    0.11089      0.00000     0.38836    0.00075     0.38911
      H   85    0.26045      0.00000     0.23827    0.00128     0.23955
      H   86    0.10927      0.00000     0.38965    0.00109     0.39073
      H   87    0.10928      0.00000     0.39011    0.00061     0.39072
      H   88    0.11285      0.00000     0.38659    0.00057     0.38715
      H   89    0.10749      0.00000     0.39137    0.00114     0.39251
      H   90    0.11692      0.00000     0.38231    0.00077     0.38308
      H   91    0.11089      0.00000     0.38825    0.00086     0.38911
      H   92    0.11687      0.00000     0.38257    0.00056     0.38313
      H   93    0.12229      0.00000     0.37725    0.00046     0.37771
      H   94    0.11452      0.00000     0.38478    0.00070     0.38548
      H   95    0.11967      0.00000     0.37984    0.00048     0.38033
      H   96    0.11534      0.00000     0.38394    0.00072     0.38466
      H   97    0.21319      0.00000     0.28603    0.00078     0.28681
      H   98    0.11531      0.00000     0.38392    0.00077     0.38469
      H   99    0.11957      0.00000     0.37965    0.00078     0.38043
 =======================================================================
   * Total *    3.00002     64.97368   135.39744    0.62886   200.99998

 Normal termination of Gaussian 16 at Fri Jan 27 04:14:44 2023.
 Gaussian 16:  ES64L-G16RevA.03 25-Dec-2016

 ----------------------------------------------------------------------
 # PBE1PBE/def2TZVP empiricaldispersion=GD3BJ int=(grid=ultrafine) geom
 =check guess=read scrf=(smd,solvent=Chloroform)
 ----------------------------------------------------------------------

 ---------------
 1c6r_III_H_solv
 ---------------
 Structure from the checkpoint file:  "1c6r_III_H.chk"
 Charge =  1 Multiplicity = 6

                         Standard orientation:
 ---------------------------------------------------------------------
 Center     Atomic      Atomic             Coordinates (Angstroms)
 Number     Number       Type             X           Y           Z
 ---------------------------------------------------------------------
      1          6           0        2.736242   -1.776043    4.898489
      2          6           0        1.883989   -1.152163    3.834226
      3          7           0        0.549537   -0.869223    4.024381
      4          6           0        2.163217   -0.809694    2.554077
      5          6           0        0.037210   -0.387008    2.905909
      6          7           0        0.996331   -0.339799    1.998544
      7          6           0       -1.121194    2.447425   -2.919353
      8          6           0       -0.477081    1.206254   -3.522607
      9         16           0        0.855251    0.546857   -2.529984
     10          6           0        1.307309   -0.917554   -3.518704
     11          6           0       -2.452476   -0.302014   -0.004859
     12          6           0        1.190179   -3.341197   -0.705720
     13          6           0        4.205773    0.356876   -0.436711
     14          6           0        0.636291    3.287494    0.979221
     15          6           0       -1.751367   -1.480337   -0.183986
     16          6           0       -2.369027   -2.801194   -0.339528
     17          6           0       -1.326576   -3.648109   -0.638721
     18          6           0       -0.109593   -2.852222   -0.564296
     19          6           0       -1.395852   -5.121432   -1.039331
     20          6           0       -3.890341   -3.101707   -0.156806
     21          6           0       -4.402298   -3.010647    1.296247
     22          6           0       -5.923453   -3.084036    1.415627
     23          8           0       -6.419370   -3.374962    2.534089
     24          8           0       -6.627206   -2.826887    0.413953
     25          6           0        2.363236   -2.586173   -0.693935
     26          6           0        3.684907   -3.108953   -0.876683
     27          6           0        4.539660   -2.057220   -0.897027
     28          6           0        3.703305   -0.905992   -0.689675
     29          6           0        4.015606   -4.589969   -1.003218
     30          6           0        5.937894   -2.043612   -1.123315
     31          6           0        6.478357   -2.342578   -2.385349
     32          6           0        3.518583    1.453110    0.004053
     33          6           0        4.119993    2.723094    0.359285
     34          6           0        3.133375    3.516717    0.820229
     35          6           0        1.911080    2.758917    0.732570
     36          6           0        5.615681    2.986007    0.419954
     37          6           0        3.267557    4.758189    1.472659
     38          6           0        3.635550    5.918056    0.757325
     39          6           0       -0.536506    2.603013    0.713125
     40          6           0       -1.897794    3.166591    0.757848
     41          6           0       -2.755821    2.174098    0.414640
     42          6           0       -1.932585    0.976801    0.181374
     43          6           0       -2.273862    4.556564    1.186588
     44          6           0       -4.256939    2.257772    0.280854
     45          6           0       -4.600448    2.323799   -1.190363
     46          6           0       -6.052051    2.705642   -1.427561
     47          8           0       -6.927044    1.812214   -1.431703
     48          8           0       -6.342982    3.905097   -1.580619
     49          7           0       -0.390255   -1.522294   -0.311070
     50          7           0        2.390691   -1.235478   -0.545656
     51          7           0        2.168352    1.465181    0.237144
     52          7           0       -0.581066    1.253457    0.288007
     53         26           0        0.900382   -0.022733   -0.086298
     54          1           0       -7.558144   -3.061246    0.408417
     55          1           0       -3.976441   -3.814701    1.859312
     56          1           0       -4.071037   -2.084546    1.717558
     57          1           0       -4.444431   -2.407006   -0.752856
     58          1           0       -4.084250   -4.089127   -0.520538
     59          1           0       -2.376239   -5.500001   -0.838268
     60          1           0       -1.183695   -5.217435   -2.083684
     61          1           0       -0.676122   -5.678309   -0.476503
     62          1           0        1.297200   -4.397853   -0.835818
     63          1           0        3.126999   -5.167652   -0.856384
     64          1           0        4.410848   -4.785133   -1.978203
     65          1           0        4.741345   -4.857795   -0.263980
     66          1           0        5.944017   -2.979497   -3.058932
     67          1           0        7.424277   -1.933331   -2.672842
     68          1           0        6.596599   -1.800465   -0.315919
     69          1           0        5.253742    0.491703   -0.605477
     70          1           0        6.089599    2.218821    0.995911
     71          1           0        6.018030    2.987664   -0.571516
     72          1           0        5.792415    3.936636    0.878179
     73          1           0        3.256084    6.873171    1.055084
     74          1           0        4.293970    5.842170   -0.082690
     75          1           0        3.087938    4.822748    2.525498
     76          1           0        0.566579    4.271059    1.394719
     77          1           0       -2.613809    4.537223    2.200966
     78          1           0       -1.420296    5.197070    1.108631
     79          1           0       -3.055310    4.925316    0.555509
     80          1           0       -3.519477   -0.381915   -0.009894
     81          1           0       -4.706814    1.390762    0.717667
     82          1           0       -4.614533    3.137171    0.774498
     83          1           0       -4.417467    1.366561   -1.632078
     84          1           0       -3.970141    3.049130   -1.661010
     85          1           0       -7.113335    4.272077   -1.140754
     86          1           0       -1.458655    2.228068   -1.927939
     87          1           0       -0.403746    3.240496   -2.884612
     88          1           0       -1.953732    2.745753   -3.521667
     89          1           0       -1.226906    0.451216   -3.634769
     90          1           0       -0.093008    1.455220   -4.489769
     91          1           0        0.470968   -1.582677   -3.573893
     92          1           0        1.584199   -0.610067   -4.505458
     93          1           0        2.131968   -1.419047   -3.056814
     94          1           0        2.250615   -2.651209    5.276841
     95          1           0        3.684772   -2.045819    4.483264
     96          1           0        2.881521   -1.076311    5.694836
     97          1           0        0.046076   -1.007408    4.877278
     98          1           0       -0.979338   -0.086520    2.760176
     99          1           0        3.112514   -0.889636    2.066897
 ---------------------------------------------------------------------

 SCF Done:  E(UPBE1PBE) =  -3879.33555843     A.U. after   19 cycles

 Alpha virt. eigenvalues --    0.99338   0.99807   1.00105   1.00418   1.00634
 Alpha virt. eigenvalues --    1.01163   1.01483   1.01633   1.01845   1.02085
 Alpha virt. eigenvalues --    1.02177   1.02516   1.02638   1.03068   1.03423

  Beta  occ. eigenvalues -- -256.47475 -89.04757 -30.20646 -26.03959 -26.03783
  Beta  occ. eigenvalues --  -26.03754 -19.27933 -19.27199 -19.19166 -19.18955
  Beta  occ. eigenvalues --  -14.46267 -14.41250 -14.40616 -14.40558 -14.40379
  Beta  occ. eigenvalues --  -14.40285 -10.36984 -10.36599 -10.30503 -10.28740
  Beta  occ. eigenvalues --  -10.28684 -10.28653 -10.28325 -10.28270 -10.28117
  Beta  occ. eigenvalues --  -10.27973 -10.27970 -10.27528 -10.25998 -10.25928
  Beta  occ. eigenvalues --  -10.25857 -10.25661 -10.25648 -10.25509 -10.25366
  Beta  occ. eigenvalues --  -10.25331 -10.25265 -10.25193 -10.25017 -10.24990
  Beta  occ. eigenvalues --  -10.24926 -10.24875 -10.24673 -10.24652 -10.24650
  Beta  occ. eigenvalues --  -10.24555 -10.24466 -10.24457 -10.24237 -10.24230
  Beta  occ. eigenvalues --  -10.24082 -10.23245 -10.22800 -10.22666 -10.22582
  Beta  occ. eigenvalues --  -10.22292 -10.21829  -8.02684  -5.96340  -5.96035
  Beta  occ. eigenvalues --   -5.95474  -3.49753  -2.24370  -2.24012  -2.23892
  Beta  occ. eigenvalues --   -1.18348  -1.18291  -1.08640  -1.03805  -1.03450
  Beta  occ. eigenvalues --   -1.02176  -1.00464  -1.00067  -0.98868  -0.93007
  Beta  occ. eigenvalues --   -0.86923  -0.86478  -0.86383  -0.85889  -0.85615
  Beta  occ. eigenvalues --   -0.85092  -0.83979  -0.83611  -0.82869  -0.81721
  Beta  occ. eigenvalues --   -0.81104  -0.79513  -0.78687  -0.78433  -0.78305
  Beta  occ. eigenvalues --   -0.76202  -0.74797  -0.74250  -0.74019  -0.73582
  Beta  occ. eigenvalues --   -0.71910  -0.71726  -0.71330  -0.69240  -0.68582
  Beta  occ. eigenvalues --   -0.68473  -0.66981  -0.66502  -0.66404  -0.64934
  Beta  occ. eigenvalues --   -0.64475  -0.64203  -0.62528  -0.62108  -0.60641
  Beta  occ. eigenvalues --   -0.58576  -0.58366  -0.57625  -0.57331  -0.56540
  Beta  occ. eigenvalues --   -0.55206  -0.54982  -0.54523  -0.53636  -0.53150
  Beta  occ. eigenvalues --   -0.52381  -0.52186  -0.51890  -0.51462  -0.51073
  Beta  occ. eigenvalues --   -0.50743  -0.50561  -0.50098  -0.49884  -0.49827
  Beta  occ. eigenvalues --   -0.49111  -0.48768  -0.48231  -0.47994  -0.47725
  Beta  occ. eigenvalues --   -0.47326  -0.47132  -0.46923  -0.46670  -0.46375
  Beta  occ. eigenvalues --   -0.46227  -0.46050  -0.45689  -0.45544  -0.45215
  Beta  occ. eigenvalues --   -0.44963  -0.44847  -0.44689  -0.44325  -0.44120
  Beta  occ. eigenvalues --   -0.44001  -0.43853  -0.43796  -0.43145  -0.42809
  Beta  occ. eigenvalues --   -0.42701  -0.42402  -0.42233  -0.42179  -0.41734
  Beta  occ. eigenvalues --   -0.41549  -0.41444  -0.41211  -0.40904  -0.40689
  Beta  occ. eigenvalues --   -0.40518  -0.40365  -0.39986  -0.39793  -0.39589
  Beta  occ. eigenvalues --   -0.39262  -0.38886  -0.38792  -0.38485  -0.38398
  Beta  occ. eigenvalues --   -0.38174  -0.37670  -0.37432  -0.37131  -0.36996
  Beta  occ. eigenvalues --   -0.35933  -0.35715  -0.35433  -0.35216  -0.34196
  Beta  occ. eigenvalues --   -0.33645  -0.33122  -0.31190  -0.31047  -0.29639
  Beta  occ. eigenvalues --   -0.29459  -0.29274  -0.28950  -0.28250  -0.27368
  Beta  occ. eigenvalues --   -0.26696  -0.26224  -0.26031  -0.25176  -0.22251
  Beta  occ. eigenvalues --   -0.21900
  Beta virt. eigenvalues --   -0.13109  -0.12943  -0.11105  -0.08759  -0.08638
  Beta virt. eigenvalues --   -0.06872  -0.05004  -0.04343  -0.03472  -0.02347
  Beta virt. eigenvalues --   -0.01337  -0.00321   0.00139   0.01015   0.01396

 Mulliken charges and spin densities:
               1          2
     1  C   -0.401017   0.001112
     2  C    0.142392   0.005247
     3  N   -0.189736   0.004367
     4  C   -0.223042   0.001883
     5  C    0.019050   0.003796
     6  N   -0.059690   0.072350
     7  C   -0.333927  -0.001414
     8  C   -0.206243   0.008317
     9  S   -0.007744   0.086266
    10  C   -0.382923   0.000781
    11  C   -0.607668  -0.020808
    12  C   -0.515149  -0.015517
    13  C   -0.486077  -0.023500
    14  C   -0.542256  -0.021397
    15  C    0.284482   0.022378
    16  C   -0.002206   0.016290
    17  C   -0.066816   0.018626
    18  C    0.243010   0.017561
    19  C   -0.423898  -0.000138
    20  C   -0.330628  -0.000487
    21  C   -0.207068   0.000487
    22  C    0.287987   0.000022
    23  O   -0.440040   0.000078
    24  O   -0.327547   0.000002
    25  C    0.338528   0.013819
    26  C   -0.073381   0.022102
    27  C    0.097924   0.020142
    28  C    0.210691   0.025591
    29  C   -0.404155   0.000210
    30  C   -0.288455  -0.007402
    31  C   -0.302742   0.010121
    32  C    0.280651   0.020800
    33  C   -0.092645   0.023337
    34  C    0.101496   0.012532
    35  C    0.214980   0.024951
    36  C   -0.406152  -0.000375
    37  C   -0.304390  -0.008536
    38  C   -0.308939   0.012382
    39  C    0.341775   0.023198
    40  C   -0.026287   0.016723
    41  C    0.048438   0.019506
    42  C    0.246183   0.024978
    43  C   -0.451300   0.000315
    44  C   -0.338607  -0.000777
    45  C   -0.176689   0.000785
    46  C    0.296385   0.000130
    47  O   -0.428664   0.000185
    48  O   -0.342974  -0.000007
    49  N   -0.008112   0.038948
    50  N   -0.076504   0.038412
    51  N    0.017193   0.045277
    52  N   -0.029987   0.053069
    53  Fe  -0.175952   4.368996
    54  H    0.381033   0.000006
    55  H    0.154072   0.000011
    56  H    0.152369   0.000021
    57  H    0.149301   0.000387
    58  H    0.147892   0.000345
    59  H    0.153021   0.000358
    60  H    0.161736   0.000669
    61  H    0.153850   0.000478
    62  H    0.151570   0.000298
    63  H    0.144848  -0.000000
    64  H    0.154153   0.000830
    65  H    0.155494   0.000686
    66  H    0.165528  -0.000468
    67  H    0.171093  -0.000260
    68  H    0.168236   0.000882
    69  H    0.170410   0.000576
    70  H    0.153394   0.000771
    71  H    0.156518   0.000792
    72  H    0.159540   0.000437
    73  H    0.169056  -0.000405
    74  H    0.173390  -0.000616
    75  H    0.168758   0.000725
    76  H    0.166080   0.000935
    77  H    0.164385   0.000834
    78  H    0.154223   0.000072
    79  H    0.158776   0.000558
    80  H    0.174446   0.000309
    81  H    0.141963   0.000325
    82  H    0.154327   0.000454
    83  H    0.140677   0.000003
    84  H    0.141884  -0.000069
    85  H    0.388842   0.000019
    86  H    0.096320   0.001289
    87  H    0.135277  -0.000029
    88  H    0.146321   0.000075
    89  H    0.140851   0.000512
    90  H    0.155271   0.005860
    91  H    0.159589   0.000784
    92  H    0.177544   0.002410
    93  H    0.174299  -0.000286
    94  H    0.155500   0.000247
    95  H    0.159198   0.000007
    96  H    0.157360   0.000160
    97  H    0.282245   0.001490
    98  H    0.197063   0.000859
    99  H    0.180743   0.000945
 Sum of Mulliken charges =   1.00000   5.00000

 Dipole moment (field-independent basis, Debye):
    X=              4.7119    Y=              0.5834    Z=              2.0391  Tot=              5.1672
 Quadrupole moment (field-independent basis, Debye-Ang):
   XX=           -272.6755   YY=           -252.8390   ZZ=           -275.0277
   XY=            -28.0428   XZ=             13.0648   YZ=             15.0590

 Normal termination of Gaussian 16 at Fri Jan 27 13:52:47 2023.
