 Gaussian 16, Revision A.03,
 Gaussian 16:  ES64L-G16RevA.03 25-Dec-2016

 ----------------------------------------------------------------------
 # PBE1PBE/def2TZVP empiricaldispersion=GD3BJ scf=maxcycle=999 geom=che
 ck pop=nbo
 ----------------------------------------------------------------------

 ---------
 1a6m_II_Q
 ---------
 Structure from the checkpoint file:  "1a6m_II_Q.chk"
 Charge =  0 Multiplicity = 5

                         Standard orientation:
 ---------------------------------------------------------------------
 Center     Atomic      Atomic             Coordinates (Angstroms)
 Number     Number       Type             X           Y           Z
 ---------------------------------------------------------------------
      1          6           0       -1.593213   -0.088727    5.340081
      2          6           0       -1.210641   -0.419821    3.935053
      3          7           0       -0.413737   -1.487716    3.595814
      4          6           0       -1.441400    0.240916    2.745104
      5          6           0       -0.206834   -1.436510    2.265679
      6          7           0       -0.798295   -0.447423    1.723055
      7         26           0       -0.747246    0.079337   -0.271439
      8          6           0        2.601930   -0.514834   -0.331246
      9          6           0       -1.318362   -3.193250   -1.118821
     10          6           0       -4.102281    0.682462   -0.364866
     11          6           0       -0.153927    3.320524    0.411293
     12          7           0        0.397979   -1.517917   -0.645063
     13          6           0        1.767803   -1.597516   -0.558918
     14          6           0        2.227035   -2.959048   -0.855304
     15          6           0        1.100999   -3.678989   -1.135708
     16          6           0       -0.011415   -2.808795   -0.981001
     17          6           0        1.007680   -5.144774   -1.498132
     18          6           0        3.631511   -3.421230   -0.742408
     19          6           0        3.876494   -4.300848    0.526503
     20          6           0        3.562988   -3.543008    1.781295
     21          8           0        2.640625   -3.900169    2.528952
     22          8           0        4.263272   -2.506631    2.029467
     23          7           0       -2.383006   -1.009151   -0.629741
     24          6           0       -2.423138   -2.366669   -0.946751
     25          6           0       -3.824717   -2.781388   -1.129494
     26          6           0       -4.586260   -1.707341   -0.933535
     27          6           0       -3.684827   -0.626366   -0.615362
     28          6           0       -4.229232   -4.187726   -1.464907
     29          6           0       -6.083968   -1.573614   -1.060357
     30          6           0       -6.746236   -2.258608   -2.024075
     31          7           0       -1.902207    1.689395    0.022240
     32          6           0       -3.278516    1.776034   -0.137126
     33          6           0       -3.714607    3.145839   -0.055265
     34          6           0       -2.600906    3.871333    0.130714
     35          6           0       -1.481495    2.956351    0.205343
     36          6           0       -5.133619    3.599088   -0.218469
     37          6           0       -2.408849    5.345745    0.181566
     38          6           0       -3.357406    6.253141    0.138206
     39          7           0        0.908348    1.187939    0.078615
     40          6           0        0.965306    2.521831    0.330951
     41          6           0        2.311213    2.965755    0.454090
     42          6           0        3.098928    1.877097    0.173174
     43          6           0        2.212654    0.761044   -0.038434
     44          6           0        2.754437    4.382048    0.695309
     45          6           0        4.594303    1.886263    0.023727
     46          6           0        4.993117    2.255747   -1.436329
     47          6           0        6.473491    2.345741   -1.628052
     48          8           0        7.123189    3.373545   -1.332453
     49          8           0        7.030659    1.372688   -2.210218
     50          8           0       -0.637735    0.450599   -2.035766
     51          8           0       -0.843930    1.580306   -2.490925
     52          1           0       -2.019051    1.134071    2.628943
     53          1           0        0.386354   -2.145429    1.726735
     54          1           0       -0.052907   -2.177782    4.223198
     55          1           0       -1.742578    0.966998    5.429717
     56          1           0       -2.498590   -0.599791    5.593077
     57          1           0       -0.812587   -0.396157    6.004167
     58          1           0       -6.623064   -0.937953   -0.389379
     59          1           0       -6.293984   -2.405808   -2.982564
     60          1           0       -7.721382   -2.652245   -1.826492
     61          1           0       -3.531093   -4.603214   -2.161234
     62          1           0       -4.237952   -4.778701   -0.572958
     63          1           0       -5.206954   -4.183579   -1.899582
     64          1           0       -1.504868   -4.213858   -1.380496
     65          1           0        1.833902   -5.410776   -2.123831
     66          1           0        1.031406   -5.734989   -0.605953
     67          1           0        0.091726   -5.325298   -2.020952
     68          1           0       -5.157456    0.859036   -0.346780
     69          1           0       -5.369356    3.665223   -1.260081
     70          1           0       -5.788951    2.895888    0.251584
     71          1           0       -5.255755    4.559782    0.236557
     72          1           0       -3.583319    6.747310   -0.783564
     73          1           0       -3.904263    6.498214    1.024652
     74          1           0       -1.402523    5.700567    0.260997
     75          1           0        0.018119    4.346232    0.662737
     76          1           0        2.755714    4.918006   -0.230783
     77          1           0        2.081547    4.854645    1.379978
     78          1           0        3.741481    4.381428    1.108401
     79          1           0        3.654766   -0.696229   -0.390693
     80          1           0        5.012124    2.605530    0.696765
     81          1           0        4.978844    0.916145    0.260157
     82          1           0        4.555524    3.200106   -1.684520
     83          1           0        4.604596    1.510590   -2.098667
     84          1           0        7.528691    1.517907   -3.017979
     85          1           0        3.877196   -3.994131   -1.612076
     86          1           0        4.273621   -2.566419   -0.698912
     87          1           0        4.901763   -4.606197    0.548527
     88          1           0        3.253164   -5.169105    0.476602
     89          1           0        4.754049   -2.078728    1.324033
 ---------------------------------------------------------------------

 SCF Done:  E(UPBE1PBE) =  -3512.48555129     A.U. after   84 cycles

 Alpha virt. eigenvalues --    0.75339   0.75810   0.76142   0.76550   0.76900
 Alpha virt. eigenvalues --    0.77358   0.77895   0.78164   0.78226   0.78456
 Alpha virt. eigenvalues --    0.78854   0.79079   0.79158   0.79990   0.80403

  Beta  occ. eigenvalues -- -256.37477 -30.13934 -25.96886 -25.96734 -25.96185
  Beta  occ. eigenvalues --  -19.27300 -19.25761 -19.23402 -19.18981 -19.18778
  Beta  occ. eigenvalues --  -19.18269 -14.44778 -14.39851 -14.38275 -14.38180
  Beta  occ. eigenvalues --  -14.38029 -14.37461 -10.36044 -10.35449 -10.27991
  Beta  occ. eigenvalues --  -10.26972 -10.25603 -10.25352 -10.25246 -10.25132
  Beta  occ. eigenvalues --  -10.25036 -10.25009 -10.24936 -10.24776 -10.24520
  Beta  occ. eigenvalues --  -10.24427 -10.24199 -10.23789 -10.23611 -10.23439
  Beta  occ. eigenvalues --  -10.23411 -10.22991 -10.22963 -10.22922 -10.22896
  Beta  occ. eigenvalues --  -10.22552 -10.22483 -10.22461 -10.22313 -10.22210
  Beta  occ. eigenvalues --  -10.22040 -10.22009 -10.21994 -10.21849 -10.21586
  Beta  occ. eigenvalues --  -10.21480 -10.21373 -10.21019 -10.20821 -10.20671
  Beta  occ. eigenvalues --   -3.46657  -2.22101  -2.21751  -2.21674  -1.16837
  Beta  occ. eigenvalues --   -1.16491  -1.16317  -1.06816  -1.04046  -1.02521
  Beta  occ. eigenvalues --   -0.98731  -0.97776  -0.97684  -0.96720  -0.92351
  Beta  occ. eigenvalues --   -0.85343  -0.84505  -0.83959  -0.83267  -0.82782
  Beta  occ. eigenvalues --   -0.81688  -0.81436  -0.81337  -0.79896  -0.79469
  Beta  occ. eigenvalues --   -0.77764  -0.76950  -0.75857  -0.74765  -0.73762
  Beta  occ. eigenvalues --   -0.73325  -0.72767  -0.72210  -0.71957  -0.70179
  Beta  occ. eigenvalues --   -0.69986  -0.69824  -0.67877  -0.66494  -0.65875
  Beta  occ. eigenvalues --   -0.65549  -0.64908  -0.62325  -0.61354  -0.60142
  Beta  occ. eigenvalues --   -0.59834  -0.58316  -0.57167  -0.57108  -0.55754
  Beta  occ. eigenvalues --   -0.55205  -0.54304  -0.54227  -0.52952  -0.52848
  Beta  occ. eigenvalues --   -0.52441  -0.51893  -0.51037  -0.50810  -0.49996
  Beta  occ. eigenvalues --   -0.49291  -0.49090  -0.48928  -0.48570  -0.48422
  Beta  occ. eigenvalues --   -0.48284  -0.47109  -0.46557  -0.46319  -0.46006
  Beta  occ. eigenvalues --   -0.45926  -0.45257  -0.45123  -0.44915  -0.44750
  Beta  occ. eigenvalues --   -0.44329  -0.44317  -0.44146  -0.44039  -0.43868
  Beta  occ. eigenvalues --   -0.43713  -0.43549  -0.43265  -0.43213  -0.43002
  Beta  occ. eigenvalues --   -0.42796  -0.42509  -0.42340  -0.42017  -0.41710
  Beta  occ. eigenvalues --   -0.41647  -0.41106  -0.40598  -0.40407  -0.39989
  Beta  occ. eigenvalues --   -0.39667  -0.39564  -0.39370  -0.39241  -0.38830
  Beta  occ. eigenvalues --   -0.38672  -0.38502  -0.38250  -0.38077  -0.37599
  Beta  occ. eigenvalues --   -0.37304  -0.37085  -0.36900  -0.36329  -0.36028
  Beta  occ. eigenvalues --   -0.35478  -0.35237  -0.33750  -0.33437  -0.33158
  Beta  occ. eigenvalues --   -0.33000  -0.32923  -0.31712  -0.30689  -0.29026
  Beta  occ. eigenvalues --   -0.28876  -0.28681  -0.28180  -0.27398  -0.26682
  Beta  occ. eigenvalues --   -0.25527  -0.25109  -0.24586  -0.24177  -0.23321
  Beta  occ. eigenvalues --   -0.21657  -0.19548  -0.19280  -0.17667
  Beta virt. eigenvalues --   -0.09461  -0.07604  -0.06236  -0.04841  -0.04277
  Beta virt. eigenvalues --   -0.02444  -0.01930  -0.01166  -0.00520   0.00129
  Beta virt. eigenvalues --    0.00521   0.00755   0.01632   0.02283   0.03399

 Mulliken charges and spin densities:
               1          2
     1  C   -0.382286  -0.000164
     2  C    0.147683  -0.000477
     3  N   -0.225821   0.001265
     4  C   -0.209890   0.002277
     5  C    0.017092   0.007584
     6  N    0.027105  -0.026960
     7  Fe  -0.334211   1.057929
     8  C   -0.507250  -0.050003
     9  C   -0.467709   0.002231
    10  C   -0.485575   0.101219
    11  C   -0.508272   0.031109
    12  N    0.000504  -0.047036
    13  C    0.315866   0.049454
    14  C    0.024483  -0.010618
    15  C   -0.046638   0.025872
    16  C    0.298393   0.009328
    17  C   -0.424676  -0.002036
    18  C   -0.427887  -0.000198
    19  C   -0.178418  -0.000839
    20  C    0.294612   0.000661
    21  O   -0.378265  -0.000029
    22  O   -0.287290  -0.000035
    23  N    0.080210   0.000013
    24  C    0.226108   0.008335
    25  C   -0.089944  -0.011488
    26  C    0.032433   0.015099
    27  C    0.262154  -0.039501
    28  C   -0.369421   0.000857
    29  C   -0.226811  -0.004804
    30  C   -0.312776   0.004434
    31  N   -0.013101   0.033812
    32  C    0.309871  -0.075533
    33  C   -0.119452   0.291080
    34  C    0.019779  -0.148990
    35  C    0.280190   0.004334
    36  C   -0.370667  -0.019350
    37  C   -0.090484   0.668501
    38  C   -0.350149   1.001221
    39  N    0.038476  -0.036603
    40  C    0.297562  -0.012850
    41  C   -0.095916   0.032874
    42  C   -0.004142  -0.017178
    43  C    0.278974   0.045398
    44  C   -0.387113  -0.002712
    45  C   -0.360022   0.000652
    46  C   -0.133327  -0.000737
    47  C    0.273387  -0.000047
    48  O   -0.360437  -0.000020
    49  O   -0.362868  -0.000031
    50  O   -0.043752   0.399059
    51  O   -0.242810   0.625893
    52  H    0.146044  -0.000091
    53  H    0.202375  -0.000439
    54  H    0.244948  -0.000165
    55  H    0.148711   0.000009
    56  H    0.147786   0.000036
    57  H    0.131062  -0.000061
    58  H    0.122956   0.000727
    59  H    0.152395  -0.000271
    60  H    0.133633  -0.000162
    61  H    0.127677  -0.000293
    62  H    0.137437  -0.000354
    63  H    0.143851  -0.000128
    64  H    0.105611  -0.000157
    65  H    0.133436   0.000412
    66  H    0.151845   0.001494
    67  H    0.134513   0.000143
    68  H    0.099361  -0.004356
    69  H    0.149583   0.015569
    70  H    0.126229   0.008517
    71  H    0.133860   0.000784
    72  H    0.146345   0.009346
    73  H    0.142745   0.014812
    74  H    0.123187   0.035220
    75  H    0.087934   0.002134
    76  H    0.147997   0.001972
    77  H    0.135609   0.000556
    78  H    0.135750   0.000269
    79  H    0.056228   0.002608
    80  H    0.139158  -0.000208
    81  H    0.100134  -0.000290
    82  H    0.138644   0.000023
    83  H    0.123467   0.000074
    84  H    0.355091   0.000001
    85  H    0.135765   0.000083
    86  H    0.144950  -0.000087
    87  H    0.135414   0.000067
    88  H    0.120145   0.000047
    89  H    0.330623  -0.000095
 Sum of Mulliken charges =  -0.00000   4.00000

 Dipole moment (field-independent basis, Debye):
    X=              0.4026    Y=             -3.6756    Z=              3.1049  Tot=              4.8283
 Quadrupole moment (field-independent basis, Debye-Ang):
   XX=           -281.5306   YY=           -286.6018   ZZ=           -289.0929
   XY=            -24.1435   XZ=            -24.3929   YZ=             13.6106

 Summary of Natural Population Analysis:

                                       Natural Population
                Natural  -----------------------------------------------
    Atom  No    Charge         Core      Valence    Rydberg      Total
 -----------------------------------------------------------------------
      C    1   -0.32106      0.99969     2.31802    0.00335     3.32106
      C    2    0.05574      0.99960     1.93693    0.00774     2.94426
      N    3   -0.24394      0.99970     2.73431    0.00994     3.74394
      C    4   -0.04005      0.99950     2.03143    0.00911     3.04005
      C    5    0.11376      0.99964     1.87644    0.01015     2.88624
      N    6   -0.19098      0.99966     2.66811    0.02321     3.69098
     Fe    7    0.66571      8.99522     3.31567    0.02340    12.33429
      C    8   -0.14275      0.99946     2.13442    0.00887     3.14275
      C    9   -0.11249      0.99947     2.10514    0.00787     3.11249
      C   10   -0.07516      0.99951     2.06820    0.00746     3.07516
      C   11   -0.10232      0.99950     2.09474    0.00808     3.10232
      N   12   -0.20881      0.99968     2.68625    0.02288     3.70881
      C   13    0.10289      0.99953     1.88695    0.01063     2.89711
      C   14   -0.03296      0.99947     2.02382    0.00966     3.03296
      C   15    0.00639      0.99943     1.98554    0.00864     2.99361
      C   16    0.07104      0.99947     1.91920    0.01028     2.92896
      C   17   -0.31978      0.99970     2.31629    0.00379     3.31978
      C   18   -0.20817      0.99964     2.20090    0.00763     3.20817
      C   19   -0.25508      0.99963     2.24730    0.00814     3.25508
      C   20    0.38594      0.99973     1.59694    0.01740     2.61406
      O   21   -0.29620      0.99989     3.28401    0.01230     4.29620
      O   22   -0.32064      0.99983     3.30597    0.01485     4.32064
      N   23   -0.17407      0.99966     2.65353    0.02088     3.67407
      C   24    0.07912      0.99955     1.91157    0.00976     2.92088
      C   25    0.00380      0.99941     1.98799    0.00879     2.99620
      C   26   -0.04806      0.99934     2.03782    0.01091     3.04806
      C   27    0.08102      0.99954     1.90932    0.01011     2.91898
      C   28   -0.32182      0.99969     2.31832    0.00381     3.32182
      C   29   -0.09824      0.99961     2.08909    0.00954     3.09824
      C   30   -0.19809      0.99965     2.18984    0.00860     3.19809
      N   31   -0.16585      0.99966     2.64278    0.02341     3.66585
      C   32    0.05464      0.99953     1.93577    0.01006     2.94536
      C   33    0.11526      0.99940     1.87691    0.00844     2.88474
      C   34   -0.08445      0.99936     2.07532    0.00977     3.08445
      C   35    0.10437      0.99954     1.88554    0.01055     2.89563
      C   36   -0.31925      0.99970     2.31605    0.00350     3.31925
      C   37    0.23091      0.99955     1.76121    0.00833     2.76909
      C   38    0.29154      0.99956     1.70092    0.00798     2.70846
      N   39   -0.19551      0.99966     2.67424    0.02161     3.69551
      C   40    0.07529      0.99950     1.91475    0.01045     2.92471
      C   41    0.01029      0.99945     1.98206    0.00820     2.98971
      C   42   -0.02388      0.99946     2.01516    0.00926     3.02388
      C   43    0.09870      0.99950     1.89158    0.01023     2.90130
      C   44   -0.32116      0.99970     2.31768    0.00379     3.32116
      C   45   -0.20325      0.99965     2.19700    0.00659     3.20325
      C   46   -0.24980      0.99962     2.24178    0.00840     3.24980
      C   47    0.38101      0.99974     1.60108    0.01817     2.61899
      O   48   -0.29217      0.99989     3.28057    0.01171     4.29217
      O   49   -0.34328      0.99981     3.32979    0.01368     4.34328
      O   50    0.17634      0.99980     2.80512    0.01873     3.82366
      O   51    0.20380      0.99995     2.78757    0.00869     3.79620
      H   52    0.11447      0.00000     0.38485    0.00068     0.38553
      H   53    0.11602      0.00000     0.38292    0.00105     0.38398
      H   54    0.21240      0.00000     0.28666    0.00094     0.28760
      H   55    0.11791      0.00000     0.38157    0.00052     0.38209
      H   56    0.11291      0.00000     0.38636    0.00073     0.38709
      H   57    0.10997      0.00000     0.38933    0.00070     0.39003
      H   58    0.10417      0.00000     0.39491    0.00092     0.39583
      H   59    0.10103      0.00000     0.39804    0.00092     0.39897
      H   60    0.09973      0.00000     0.39951    0.00076     0.40027
      H   61    0.10934      0.00000     0.38995    0.00071     0.39066
      H   62    0.11129      0.00000     0.38787    0.00084     0.38871
      H   63    0.11712      0.00000     0.38210    0.00078     0.38288
      H   64    0.10778      0.00000     0.39080    0.00142     0.39222
      H   65    0.10964      0.00000     0.38959    0.00078     0.39036
      H   66    0.11291      0.00000     0.38624    0.00085     0.38709
      H   67    0.11070      0.00000     0.38864    0.00066     0.38930
      H   68    0.10595      0.00000     0.39283    0.00122     0.39405
      H   69    0.12055      0.00000     0.37876    0.00069     0.37945
      H   70    0.11192      0.00000     0.38745    0.00062     0.38808
      H   71    0.11328      0.00000     0.38606    0.00067     0.38672
      H   72    0.10897      0.00000     0.39042    0.00061     0.39103
      H   73    0.10775      0.00000     0.39163    0.00062     0.39225
      H   74    0.12669      0.00000     0.37260    0.00071     0.37331
      H   75    0.10416      0.00000     0.39474    0.00109     0.39584
      H   76    0.11410      0.00000     0.38507    0.00083     0.38590
      H   77    0.11086      0.00000     0.38845    0.00069     0.38914
      H   78    0.11149      0.00000     0.38773    0.00078     0.38851
      H   79    0.09738      0.00000     0.40118    0.00144     0.40262
      H   80    0.11471      0.00000     0.38441    0.00088     0.38529
      H   81    0.10087      0.00000     0.39800    0.00113     0.39913
      H   82    0.12185      0.00000     0.37752    0.00063     0.37815
      H   83    0.11216      0.00000     0.38715    0.00069     0.38784
      H   84    0.25856      0.00000     0.24018    0.00126     0.24144
      H   85    0.11561      0.00000     0.38347    0.00092     0.38439
      H   86    0.09809      0.00000     0.40101    0.00090     0.40191
      H   87    0.11175      0.00000     0.38751    0.00073     0.38825
      H   88    0.11863      0.00000     0.38063    0.00074     0.38137
      H   89    0.24897      0.00000     0.25001    0.00102     0.25103
 =======================================================================
   * Total *    2.00000     58.97543   129.43308    0.59149   189.00000

 Normal termination of Gaussian 16 at Fri Sep  9 23:22:14 2022.
