 Gaussian 16, Revision A.03,

 ----------------------------------------------------------------------
 # PBE1PBE/def2TZVP scf=maxcycle=999 empiricaldispersion=GD3BJ int=(gri
 d=ultrafine) geom=check pop=nbo
 ----------------------------------------------------------------------

 ---------
 2ce0_II_Q
 ---------
 Structure from the checkpoint file:  "2ce0_II_Q.chk"
 Charge =  0 Multiplicity = 5

 SCF Done:  E(UPBE1PBE) =  -3880.53604663     A.U. after  189 cycles

 Summary of Natural Population Analysis:

                                       Natural Population
                Natural  -----------------------------------------------
    Atom  No    Charge         Core      Valence    Rydberg      Total
 -----------------------------------------------------------------------
      C    1   -0.31869      0.99970     2.31589    0.00311     3.31869
      C    2    0.05073      0.99954     1.94041    0.00932     2.94927
      N    3   -0.24369      0.99968     2.73390    0.01011     3.74369
      C    4   -0.03903      0.99942     2.02963    0.00997     3.03903
      C    5    0.08352      0.99966     1.90503    0.01179     2.91648
      N    6   -0.15853      0.99971     2.62862    0.03019     3.65853
      C    7   -0.30404      0.99972     2.29854    0.00577     3.30404
      C    8   -0.27677      0.99967     2.26762    0.00947     3.27677
      S    9    0.29346      4.99915     2.68064    0.02675     7.70654
      C   10   -0.37639      0.99964     2.36783    0.00891     3.37639
     Fe   11    1.09693      8.99519     2.88230    0.02558    11.90307
      C   12   -0.12597      0.99945     2.11729    0.00924     3.12597
      C   13   -0.11577      0.99947     2.10776    0.00854     3.11577
      C   14   -0.11411      0.99946     2.10615    0.00850     3.11411
      C   15   -0.11996      0.99944     2.11195    0.00856     3.11996
      N   16   -0.18050      0.99969     2.66021    0.02061     3.68050
      C   17    0.06142      0.99949     1.92769    0.01140     2.93858
      C   18   -0.02237      0.99938     2.01339    0.00961     3.02237
      C   19   -0.01196      0.99939     2.00422    0.00835     3.01196
      C   20    0.05950      0.99951     1.93013    0.01087     2.94050
      C   21   -0.31811      0.99970     2.31497    0.00344     3.31811
      C   22   -0.20464      0.99968     2.19743    0.00753     3.20464
      C   23   -0.25894      0.99963     2.25066    0.00866     3.25894
      C   24    0.38080      0.99975     1.60261    0.01685     2.61920
      O   25   -0.29358      0.99989     3.28173    0.01196     4.29358
      O   26   -0.32116      0.99982     3.30650    0.01483     4.32116
      N   27   -0.18546      0.99969     2.66495    0.02082     3.68546
      C   28    0.05378      0.99951     1.93597    0.01073     2.94622
      C   29    0.01926      0.99936     1.97267    0.00871     2.98074
      C   30   -0.09275      0.99936     2.08308    0.01031     3.09275
      C   31    0.07107      0.99950     1.91929    0.01014     2.92893
      C   32   -0.31672      0.99970     2.31347    0.00355     3.31672
      C   33    0.40359      0.99961     1.58890    0.00791     2.59641
      C   34   -0.36503      0.99964     2.35783    0.00756     3.36503
      N   35   -0.17382      0.99969     2.65400    0.02014     3.67382
      C   36    0.05194      0.99949     1.93800    0.01056     2.94806
      C   37    0.03935      0.99934     1.95268    0.00863     2.96065
      C   38   -0.10004      0.99936     2.09040    0.01027     3.10004
      C   39    0.08269      0.99950     1.90726    0.01055     2.91731
      C   40   -0.32026      0.99970     2.31698    0.00358     3.32026
      C   41    0.39419      0.99958     1.59802    0.00820     2.60581
      C   42   -0.36840      0.99962     2.36068    0.00810     3.36840
      N   43   -0.20323      0.99970     2.68304    0.02049     3.70323
      C   44    0.05439      0.99946     1.93535    0.01080     2.94561
      C   45   -0.01275      0.99956     2.00468    0.00850     3.01275
      C   46   -0.01739      0.99956     2.00902    0.00881     3.01739
      C   47    0.04961      0.99945     1.94009    0.01085     2.95039
      C   48   -0.32147      0.99968     2.31808    0.00371     3.32147
      C   49   -0.21166      0.99966     2.20554    0.00646     3.21166
      C   50   -0.25187      0.99964     2.24379    0.00844     3.25187
      C   51    0.37937      0.99973     1.60334    0.01755     2.62063
      O   52   -0.29570      0.99989     3.28390    0.01191     4.29570
      O   53   -0.31458      0.99981     3.29953    0.01524     4.31458
      H   54    0.11686      0.00000     0.38266    0.00048     0.38314
      H   55    0.11015      0.00000     0.38911    0.00074     0.38985
      H   56    0.10737      0.00000     0.39191    0.00072     0.39263
      H   57    0.11513      0.00000     0.38407    0.00080     0.38487
      H   58    0.20528      0.00000     0.29390    0.00082     0.29472
      H   59    0.11126      0.00000     0.38784    0.00089     0.38874
      H   60    0.12301      0.00000     0.37646    0.00053     0.37699
      H   61    0.10830      0.00000     0.39111    0.00059     0.39170
      H   62    0.10828      0.00000     0.39094    0.00077     0.39172
      H   63    0.11133      0.00000     0.38778    0.00089     0.38867
      H   64    0.10542      0.00000     0.39398    0.00060     0.39458
      H   65    0.10555      0.00000     0.39330    0.00115     0.39445
      H   66    0.10478      0.00000     0.39393    0.00129     0.39522
      H   67    0.10820      0.00000     0.39094    0.00087     0.39180
      H   68    0.15102      0.00000     0.34848    0.00050     0.34898
      H   69    0.12597      0.00000     0.37343    0.00059     0.37403
      H   70    0.11424      0.00000     0.38500    0.00075     0.38576
      H   71    0.07719      0.00000     0.42195    0.00086     0.42281
      H   72    0.11548      0.00000     0.38396    0.00056     0.38452
      H   73    0.15131      0.00000     0.34803    0.00066     0.34869
      H   74    0.13180      0.00000     0.36756    0.00064     0.36820
      H   75    0.07649      0.00000     0.42268    0.00083     0.42351
      H   76    0.10785      0.00000     0.39150    0.00065     0.39215
      H   77    0.11153      0.00000     0.38775    0.00072     0.38847
      H   78    0.11182      0.00000     0.38747    0.00071     0.38818
      H   79    0.11130      0.00000     0.38759    0.00112     0.38870
      H   80    0.11186      0.00000     0.38739    0.00074     0.38814
      H   81    0.10709      0.00000     0.39230    0.00061     0.39291
      H   82    0.10951      0.00000     0.38968    0.00081     0.39049
      H   83    0.10799      0.00000     0.39073    0.00128     0.39201
      H   84    0.10831      0.00000     0.39089    0.00080     0.39169
      H   85    0.10745      0.00000     0.39182    0.00074     0.39255
      H   86    0.11090      0.00000     0.38830    0.00079     0.38910
      H   87    0.11109      0.00000     0.38816    0.00075     0.38891
      H   88    0.11506      0.00000     0.38409    0.00085     0.38494
      H   89    0.10641      0.00000     0.39275    0.00084     0.39359
      H   90    0.11986      0.00000     0.37945    0.00069     0.38014
      H   91    0.24986      0.00000     0.24902    0.00111     0.25014
      H   92    0.25085      0.00000     0.24832    0.00084     0.24915
      H   93    0.10746      0.00000     0.39179    0.00075     0.39254
      H   94    0.12044      0.00000     0.37881    0.00075     0.37956
      H   95    0.09807      0.00000     0.40052    0.00141     0.40193
      H   96    0.11318      0.00000     0.38565    0.00118     0.38682
      H   97    0.10428      0.00000     0.39405    0.00167     0.39572
      H   98    0.10901      0.00000     0.39037    0.00062     0.39099
      H   99    0.11288      0.00000     0.38627    0.00084     0.38712
      H  100    0.11069      0.00000     0.38853    0.00078     0.38931
      H  101    0.11057      0.00000     0.38811    0.00132     0.38943
 =======================================================================
   * Total *    2.00000     64.97363   137.39399    0.63238   203.00000

 Normal termination of Gaussian 16 at Tue Feb  7 01:26:43 2023.
 Gaussian 16:  ES64L-G16RevA.03 25-Dec-2016

 ----------------------------------------------------------------------
 # PBE1PBE/def2TZVP empiricaldispersion=GD3BJ int=(grid=ultrafine) geom
 =check guess=read scrf=(smd,solvent=Chloroform)
 ----------------------------------------------------------------------

 --------------
 2ce0_II_Q_solv
 --------------
 Structure from the checkpoint file:  "2ce0_II_Q.chk"
 Charge =  0 Multiplicity = 5

                         Standard orientation:
 ---------------------------------------------------------------------
 Center     Atomic      Atomic             Coordinates (Angstroms)
 Number     Number       Type             X           Y           Z
 ---------------------------------------------------------------------
      1          6           0        2.463463   -1.764388    4.967158
      2          6           0        1.671824   -1.242089    3.813114
      3          7           0        0.322260   -0.982503    3.904583
      4          6           0        2.029958   -0.959966    2.540211
      5          6           0       -0.115795   -0.558411    2.728594
      6          7           0        0.895494   -0.553455    1.874070
      7          6           0       -0.421372    2.908623   -2.603046
      8          6           0        0.771200    2.054163   -2.914137
      9         16           0        0.606091    0.436851   -2.289596
     10          6           0        1.636523   -0.573279   -3.341828
     11         26           0        0.796276   -0.059784   -0.075413
     12          6           0       -2.587887   -0.250923   -0.200191
     13          6           0        1.024013   -3.405572   -0.724072
     14          6           0        4.184291    0.235404   -0.382558
     15          6           0        0.620957    3.164099    1.021453
     16          7           0       -0.525684   -1.544961   -0.417364
     17          6           0       -1.898986   -1.417457   -0.378922
     18          6           0       -2.491977   -2.718452   -0.564252
     19          6           0       -1.484228   -3.596057   -0.729045
     20          6           0       -0.236515   -2.869092   -0.636142
     21          6           0       -1.580156   -5.118086   -0.959399
     22          6           0       -4.021410   -2.978554   -0.529429
     23          6           0       -4.449672   -3.016010    0.954704
     24          6           0       -5.949539   -3.023321    1.187244
     25          8           0       -6.714296   -2.721101    0.240957
     26          8           0       -6.406437   -3.312859    2.334847
     27          7           0        2.312777   -1.344790   -0.454805
     28          6           0        2.211498   -2.703112   -0.672798
     29          6           0        3.535279   -3.247426   -0.876898
     30          6           0        4.395208   -2.223284   -0.795614
     31          6           0        3.649515   -1.024726   -0.525674
     32          6           0        3.814941   -4.743791   -1.146188
     33          6           0        5.924981   -2.273449   -0.986537
     34          6           0        6.429940   -2.659837   -2.192211
     35          7           0        2.136879    1.426952    0.253084
     36          6           0        3.499967    1.340694    0.052814
     37          6           0        4.099834    2.577362    0.465957
     38          6           0        3.114763    3.383624    0.869834
     39          6           0        1.866369    2.676958    0.740577
     40          6           0        5.619944    2.862370    0.427416
     41          6           0        3.240751    4.817073    1.422345
     42          6           0        3.882389    5.791676    0.753533
     43          7           0       -0.718007    1.235644    0.341334
     44          6           0       -0.563970    2.554020    0.722120
     45          6           0       -1.838128    3.215020    0.754973
     46          6           0       -2.816654    2.154920    0.363077
     47          6           0       -2.057642    0.962911    0.133457
     48          6           0       -2.131335    4.670572    1.099550
     49          6           0       -4.328797    2.354170    0.229184
     50          6           0       -4.634230    2.688767   -1.233410
     51          6           0       -6.118462    2.850153   -1.435948
     52          8           0       -6.560756    4.008450   -1.617805
     53          8           0       -6.835569    1.817834   -1.412658
     54          1           0        3.389156   -2.166535    4.611814
     55          1           0        2.660815   -0.967933    5.653898
     56          1           0        1.907480   -2.532826    5.462421
     57          1           0        3.013718   -1.038184    2.126693
     58          1           0       -0.236596   -1.095875    4.726061
     59          1           0       -1.121210   -0.267758    2.505968
     60          1           0        1.853040   -1.497454   -2.847943
     61          1           0        1.123460   -0.771068   -4.259730
     62          1           0        2.550450   -0.056532   -3.548250
     63          1           0       -0.397312    3.192727   -1.571733
     64          1           0       -0.401005    3.785944   -3.215249
     65          1           0       -1.316671    2.356834   -2.800199
     66          1           0        1.641577    2.504358   -2.484405
     67          1           0        0.894515    2.004687   -3.975855
     68          1           0        6.731505   -1.795476   -2.746141
     69          1           0        7.275466   -3.296967   -2.037130
     70          1           0        5.679240   -3.190383   -2.739817
     71          1           0        6.580750   -2.008586   -0.183596
     72          1           0        3.595704    6.743802    1.148715
     73          1           0        4.939008    5.663488    0.863189
     74          1           0        3.622926    5.743108   -0.283395
     75          1           0        2.802277    5.044795    2.371440
     76          1           0        6.152727    1.941426    0.313814
     77          1           0        5.841233    3.506573   -0.397771
     78          1           0        5.917220    3.336229    1.339548
     79          1           0        5.217223    0.362616   -0.631091
     80          1           0        4.237736   -5.190790   -0.270782
     81          1           0        2.899066   -5.239075   -1.392699
     82          1           0        4.501587   -4.837216   -1.961473
     83          1           0        1.092606   -4.466679   -0.843432
     84          1           0       -1.116962   -5.632222   -0.143301
     85          1           0       -2.608979   -5.404924   -1.023805
     86          1           0       -1.081078   -5.373017   -1.870898
     87          1           0       -4.241764   -3.916161   -0.995515
     88          1           0       -4.536308   -2.189748   -1.036937
     89          1           0       -4.035321   -3.895023    1.402531
     90          1           0       -4.037068   -2.159589    1.445826
     91          1           0       -5.944346   -3.945303    2.889903
     92          1           0       -6.462881    0.980863   -1.125981
     93          1           0       -4.276062    1.898097   -1.859077
     94          1           0       -4.140245    3.600278   -1.498033
     95          1           0       -4.838256    1.455741    0.508787
     96          1           0       -4.644629    3.160045    0.858244
     97          1           0       -3.648539   -0.292479   -0.335059
     98          1           0       -1.227983    5.152446    1.410440
     99          1           0       -2.523160    5.169169    0.237706
    100          1           0       -2.848689    4.711876    1.892391
    101          1           0        0.569268    4.108891    1.521050
 ---------------------------------------------------------------------

 SCF Done:  E(UPBE1PBE) =  -3880.60150640     A.U. after   51 cycles

 Alpha virt. eigenvalues --    1.03985   1.04406   1.04476   1.04673   1.04980
 Alpha virt. eigenvalues --    1.05487   1.05894   1.06145   1.06418   1.06826
 Alpha virt. eigenvalues --    1.06927   1.07158   1.07485   1.07683   1.08027

  Beta  occ. eigenvalues -- -256.32477 -88.99069 -30.07121 -25.91307 -25.91170
  Beta  occ. eigenvalues --  -25.87645 -19.26557 -19.26518 -19.18523 -19.17492
  Beta  occ. eigenvalues --  -14.42974 -14.37370 -14.37220 -14.37107 -14.36741
  Beta  occ. eigenvalues --  -14.36541 -10.35900 -10.34823 -10.26465 -10.24747
  Beta  occ. eigenvalues --  -10.24535 -10.24441 -10.24359 -10.24321 -10.24252
  Beta  occ. eigenvalues --  -10.24250 -10.24108 -10.24101 -10.23076 -10.23020
  Beta  occ. eigenvalues --  -10.22845 -10.22729 -10.22483 -10.22107 -10.22092
  Beta  occ. eigenvalues --  -10.22011 -10.21918 -10.21914 -10.21875 -10.21820
  Beta  occ. eigenvalues --  -10.21685 -10.21622 -10.21580 -10.21504 -10.21411
  Beta  occ. eigenvalues --  -10.21394 -10.21207 -10.21175 -10.20762 -10.20727
  Beta  occ. eigenvalues --  -10.20669 -10.20612 -10.20593 -10.20431 -10.19163
  Beta  occ. eigenvalues --  -10.18919 -10.18779  -7.97180  -5.90859  -5.90520
  Beta  occ. eigenvalues --   -5.89946  -3.39173  -2.15997  -2.15939  -2.10661
  Beta  occ. eigenvalues --   -1.16356  -1.16264  -1.04937  -1.03229  -1.02551
  Beta  occ. eigenvalues --   -0.97970  -0.97153  -0.96707  -0.95502  -0.89238
  Beta  occ. eigenvalues --   -0.84144  -0.83261  -0.82994  -0.82660  -0.82112
  Beta  occ. eigenvalues --   -0.81928  -0.81234  -0.80855  -0.80033  -0.78622
  Beta  occ. eigenvalues --   -0.78192  -0.77574  -0.77435  -0.75820  -0.75643
  Beta  occ. eigenvalues --   -0.74014  -0.71938  -0.71631  -0.71236  -0.71194
  Beta  occ. eigenvalues --   -0.69304  -0.69162  -0.68482  -0.66693  -0.66128
  Beta  occ. eigenvalues --   -0.66047  -0.65542  -0.64986  -0.63002  -0.60927
  Beta  occ. eigenvalues --   -0.60618  -0.59931  -0.59189  -0.58743  -0.57979
  Beta  occ. eigenvalues --   -0.56070  -0.55222  -0.54819  -0.54175  -0.53621
  Beta  occ. eigenvalues --   -0.53460  -0.52869  -0.52100  -0.51590  -0.51170
  Beta  occ. eigenvalues --   -0.50538  -0.49430  -0.49292  -0.48773  -0.48330
  Beta  occ. eigenvalues --   -0.47954  -0.47599  -0.47252  -0.46858  -0.46629
  Beta  occ. eigenvalues --   -0.46353  -0.45713  -0.45421  -0.45351  -0.45071
  Beta  occ. eigenvalues --   -0.44896  -0.44474  -0.44143  -0.43852  -0.43470
  Beta  occ. eigenvalues --   -0.43331  -0.43195  -0.43035  -0.43000  -0.42732
  Beta  occ. eigenvalues --   -0.42468  -0.42263  -0.42093  -0.41864  -0.41847
  Beta  occ. eigenvalues --   -0.41678  -0.41497  -0.41292  -0.40861  -0.40653
  Beta  occ. eigenvalues --   -0.40415  -0.40240  -0.39967  -0.39783  -0.39621
  Beta  occ. eigenvalues --   -0.39428  -0.39264  -0.38836  -0.38735  -0.38454
  Beta  occ. eigenvalues --   -0.38060  -0.37999  -0.37715  -0.37517  -0.37047
  Beta  occ. eigenvalues --   -0.36802  -0.36609  -0.36397  -0.35966  -0.35737
  Beta  occ. eigenvalues --   -0.34968  -0.34876  -0.34342  -0.33580  -0.33365
  Beta  occ. eigenvalues --   -0.33235  -0.32957  -0.32502  -0.32251  -0.31824
  Beta  occ. eigenvalues --   -0.31503  -0.31207  -0.30134  -0.29322  -0.28825
  Beta  occ. eigenvalues --   -0.28505  -0.28320  -0.27360  -0.25990  -0.24899
  Beta  occ. eigenvalues --   -0.24276  -0.23502  -0.22415  -0.21957  -0.19701
  Beta  occ. eigenvalues --   -0.19048  -0.16602  -0.15618
  Beta virt. eigenvalues --   -0.07317  -0.06974  -0.03801  -0.03013  -0.01541
  Beta virt. eigenvalues --   -0.00395   0.00246   0.01687   0.01773   0.02844
  Beta virt. eigenvalues --    0.03406   0.03545   0.03999   0.04708   0.05089

 Mulliken charges and spin densities:
               1          2
     1  C   -0.412700   0.001051
     2  C    0.157779   0.004564
     3  N   -0.215564  -0.001175
     4  C   -0.243529  -0.004128
     5  C   -0.014051  -0.011563
     6  N    0.037200   0.053086
     7  C   -0.359090   0.001161
     8  C   -0.180265   0.005444
     9  S    0.007042   0.048585
    10  C   -0.395413   0.000552
    11  Fe  -0.318219   2.181489
    12  C   -0.609625  -0.016519
    13  C   -0.539363   0.010935
    14  C   -0.552515   0.025851
    15  C   -0.503723  -0.013287
    16  N    0.042706  -0.013887
    17  C    0.278676  -0.009860
    18  C   -0.013589  -0.008689
    19  C   -0.089826  -0.000306
    20  C    0.204668  -0.024465
    21  C   -0.427793   0.000484
    22  C   -0.313470   0.001378
    23  C   -0.285116  -0.000382
    24  C    0.329499  -0.000020
    25  O   -0.421868  -0.000019
    26  O   -0.333360  -0.000038
    27  N   -0.027907   0.015304
    28  C    0.258992  -0.034794
    29  C   -0.101820   0.072836
    30  C    0.075953  -0.122429
    31  C    0.112854  -0.016824
    32  C   -0.398251  -0.003453
    33  C   -0.282679   0.976777
    34  C   -0.341820  -0.068596
    35  N    0.023245  -0.002334
    36  C    0.278407  -0.041021
    37  C   -0.070338   0.119049
    38  C    0.011345  -0.156210
    39  C    0.190623   0.008091
    40  C   -0.429343  -0.007888
    41  C   -0.301082   0.963016
    42  C   -0.329329  -0.073554
    43  N   -0.006169  -0.007765
    44  C    0.204556  -0.010766
    45  C   -0.110568  -0.011424
    46  C    0.036373  -0.008116
    47  C    0.238443  -0.006839
    48  C   -0.423780   0.000829
    49  C   -0.359233   0.001506
    50  C   -0.262501  -0.000747
    51  C    0.323129  -0.000207
    52  O   -0.432462  -0.000121
    53  O   -0.305784  -0.000001
    54  H    0.157327  -0.000004
    55  H    0.152039   0.000183
    56  H    0.144230   0.000158
    57  H    0.163881   0.001918
    58  H    0.266674   0.002694
    59  H    0.183248   0.002315
    60  H    0.164417   0.000467
    61  H    0.155597   0.002317
    62  H    0.145481  -0.000126
    63  H    0.130094  -0.000395
    64  H    0.134519   0.000015
    65  H    0.109531  -0.000422
    66  H    0.118461   0.000229
    67  H    0.138922   0.004135
    68  H    0.144196   0.078165
    69  H    0.131925   0.032042
    70  H    0.136092   0.008541
    71  H    0.149710  -0.047830
    72  H    0.135432   0.007437
    73  H    0.141275   0.083938
    74  H    0.138070   0.042092
    75  H    0.145172  -0.049586
    76  H    0.141427   0.000426
    77  H    0.156784   0.003203
    78  H    0.155118   0.004485
    79  H    0.158200  -0.000058
    80  H    0.152987   0.003208
    81  H    0.139452  -0.000193
    82  H    0.141091   0.001596
    83  H    0.151857  -0.000469
    84  H    0.148307  -0.000303
    85  H    0.142646  -0.000029
    86  H    0.152434  -0.000272
    87  H    0.142781   0.000012
    88  H    0.135626  -0.000429
    89  H    0.151083  -0.000007
    90  H    0.169596   0.000095
    91  H    0.381639   0.000001
    92  H    0.380134   0.000011
    93  H    0.164320   0.000081
    94  H    0.134818   0.000079
    95  H    0.148530  -0.000283
    96  H    0.143149  -0.000020
    97  H    0.142471   0.000582
    98  H    0.139307   0.000188
    99  H    0.153590  -0.000462
   100  H    0.151719  -0.000225
   101  H    0.135292   0.005941
 Sum of Mulliken charges =  -0.00000   4.00000

 Dipole moment (field-independent basis, Debye):
    X=              8.9181    Y=             -7.6474    Z=              8.4142  Tot=             14.4504
 Quadrupole moment (field-independent basis, Debye-Ang):
   XX=           -381.2201   YY=           -307.6843   ZZ=           -287.3190
   XY=             39.8128   XZ=            -33.8748   YZ=             -6.3510

 Normal termination of Gaussian 16 at Wed Feb  8 09:03:19 2023.
