 Gaussian 16, Revision A.03,

 ----------------------------------------------------------------------
 # PBE1PBE/def2TZVP empiricaldispersion=GD3BJ int=(grid=ultrafine) geom
 =check pop=nbo
 ----------------------------------------------------------------------

 ----------
 1es1_III_H
 ----------
 Structure from the checkpoint file:  "1es1_III_H.chk"
 Charge =  1 Multiplicity = 6

 SCF Done:  E(UPBE1PBE) =  -3627.31038735     A.U. after   35 cycles

 Summary of Natural Population Analysis:

                                       Natural Population
                Natural  -----------------------------------------------
    Atom  No    Charge         Core      Valence    Rydberg      Total
 -----------------------------------------------------------------------
      C    1   -0.32004      0.99969     2.31718    0.00317     3.32004
      C    2    0.06228      0.99954     1.92923    0.00895     2.93772
      N    3   -0.23487      0.99969     2.72588    0.00930     3.73487
      C    4   -0.03338      0.99943     2.02515    0.00880     3.03338
      C    5    0.11073      0.99965     1.87922    0.01040     2.88927
      N    6   -0.16211      0.99972     2.64012    0.02227     3.66211
      C    7   -0.32086      0.99969     2.31515    0.00602     3.32086
      C    8    0.06512      0.99954     1.92663    0.00872     2.93488
      N    9   -0.23370      0.99969     2.72465    0.00937     3.73370
      C   10   -0.03231      0.99943     2.02404    0.00884     3.03231
      C   11    0.10910      0.99964     1.88085    0.01042     2.89090
      N   12   -0.15663      0.99971     2.63482    0.02209     3.65663
      C   13   -0.11820      0.99947     2.11081    0.00792     3.11820
      C   14   -0.12405      0.99934     2.11581    0.00889     3.12405
      C   15   -0.10598      0.99948     2.09854    0.00796     3.10598
      C   16   -0.12714      0.99946     2.12041    0.00728     3.12714
      C   17    0.10313      0.99948     1.88765    0.00974     2.89687
      C   18   -0.00308      0.99940     1.99442    0.00926     3.00308
      C   19    0.00948      0.99943     1.98281    0.00828     2.99052
      C   20    0.08756      0.99948     1.90274    0.01022     2.91244
      C   21   -0.32211      0.99969     2.31630    0.00612     3.32211
      C   22   -0.21118      0.99967     2.20451    0.00700     3.21118
      C   23   -0.24535      0.99964     2.23715    0.00857     3.24535
      C   24    0.38410      0.99977     1.59760    0.01854     2.61590
      O   25   -0.32341      0.99981     3.31015    0.01345     4.32341
      O   26   -0.31301      0.99989     3.30077    0.01235     4.31301
      C   27    0.09157      0.99951     1.89847    0.01045     2.90843
      C   28    0.02417      0.99928     1.96597    0.01058     2.97583
      C   29   -0.03611      0.99942     2.02549    0.01119     3.03611
      C   30    0.10081      0.99949     1.88959    0.01010     2.89919
      C   31   -0.31852      0.99970     2.31533    0.00349     3.31852
      C   32   -0.11268      0.99959     2.10352    0.00957     3.11268
      C   33   -0.16867      0.99968     2.16390    0.00509     3.16867
      C   34    0.08221      0.99948     1.90786    0.01046     2.91779
      C   35    0.04706      0.99928     1.94199    0.01167     2.95294
      C   36   -0.06119      0.99922     2.04959    0.01237     3.06119
      C   37    0.09595      0.99955     1.89401    0.01049     2.90405
      C   38   -0.62115      0.99956     2.59186    0.02973     3.62115
      C   39   -0.11054      0.99962     2.10240    0.00852     3.11054
      C   40   -0.17333      0.99970     2.16754    0.00609     3.17333
      C   41    0.08532      0.99952     1.90511    0.01005     2.91468
      C   42    0.00638      0.99942     1.98606    0.00813     2.99362
      C   43   -0.00133      0.99939     1.99275    0.00919     3.00133
      C   44    0.09948      0.99946     1.89128    0.00978     2.90052
      C   45   -0.31998      0.99970     2.31401    0.00627     3.31998
      C   46   -0.20801      0.99968     2.20008    0.00825     3.20801
      C   47   -0.25921      0.99964     2.25109    0.00849     3.25921
      C   48    0.38086      0.99975     1.60205    0.01734     2.61914
      O   49   -0.32481      0.99980     3.30957    0.01545     4.32481
      O   50   -0.28211      0.99989     3.27039    0.01182     4.28211
      N   51   -0.18968      0.99969     2.66948    0.02051     3.68968
      N   52   -0.19187      0.99970     2.67158    0.02059     3.69187
      N   53   -0.18774      0.99970     2.66751    0.02053     3.68774
      N   54   -0.18655      0.99968     2.66618    0.02069     3.68655
     Fe   55    2.42913      8.99478     1.53416    0.04193    10.57087
      H   56    0.11984      0.00000     0.37971    0.00045     0.38016
      H   57    0.11495      0.00000     0.38437    0.00068     0.38505
      H   58    0.11376      0.00000     0.38557    0.00067     0.38624
      H   59    0.11743      0.00000     0.38183    0.00074     0.38257
      H   60    0.11279      0.00000     0.38647    0.00074     0.38721
      H   61    0.11855      0.00000     0.38101    0.00044     0.38145
      H   62    0.11067      0.00000     0.38877    0.00056     0.38933
      H   63    0.12186      0.00000     0.37746    0.00067     0.37814
      H   64    0.11611      0.00000     0.38308    0.00081     0.38389
      H   65    0.11238      0.00000     0.38687    0.00075     0.38762
      H   66    0.10965      0.00000     0.38903    0.00132     0.39035
      H   67    0.11479      0.00000     0.38395    0.00126     0.38521
      H   68    0.13266      0.00000     0.36618    0.00115     0.36734
      H   69    0.11384      0.00000     0.38493    0.00124     0.38616
      H   70    0.11236      0.00000     0.38702    0.00062     0.38764
      H   71    0.11433      0.00000     0.38506    0.00060     0.38567
      H   72    0.11650      0.00000     0.38284    0.00065     0.38350
      H   73    0.11444      0.00000     0.38464    0.00092     0.38556
      H   74    0.11657      0.00000     0.38258    0.00084     0.38343
      H   75    0.12021      0.00000     0.37908    0.00072     0.37979
      H   76    0.11855      0.00000     0.38067    0.00078     0.38145
      H   77    0.11719      0.00000     0.38211    0.00069     0.38281
      H   78    0.10779      0.00000     0.39159    0.00062     0.39221
      H   79    0.11747      0.00000     0.38184    0.00069     0.38253
      H   80    0.11115      0.00000     0.38777    0.00108     0.38885
      H   81    0.09859      0.00000     0.40060    0.00081     0.40141
      H   82    0.10380      0.00000     0.39552    0.00068     0.39620
      H   83    0.20034      0.00000     0.29880    0.00086     0.29966
      H   84    0.21581      0.00000     0.28306    0.00113     0.28419
      H   85    0.21220      0.00000     0.28536    0.00244     0.28780
      H   86    0.10478      0.00000     0.39441    0.00081     0.39522
      H   87    0.08673      0.00000     0.41205    0.00122     0.41327
      H   88    0.10663      0.00000     0.39271    0.00066     0.39337
      H   89    0.11180      0.00000     0.38762    0.00058     0.38820
      H   90    0.11137      0.00000     0.38815    0.00047     0.38863
      H   91    0.11677      0.00000     0.38258    0.00065     0.38323
      H   92    0.11185      0.00000     0.38734    0.00081     0.38815
      H   93    0.12285      0.00000     0.37629    0.00086     0.37715
      H   94    0.11447      0.00000     0.38465    0.00088     0.38553
      H   95    0.11320      0.00000     0.38588    0.00091     0.38680
      H   96    0.25474      0.00000     0.24418    0.00108     0.24526
      H   97    0.25743      0.00000     0.24104    0.00154     0.24257
      H   98    0.21391      0.00000     0.28534    0.00075     0.28609
      H   99    0.21335      0.00000     0.28584    0.00081     0.28665
 =======================================================================
   * Total *    3.00005     62.97229   138.34728    0.68038   201.99995

 Normal termination of Gaussian 16 at Thu Oct 20 01:41:12 2022.
 Gaussian 16:  ES64L-G16RevA.03 25-Dec-2016

 ----------------------------------------------------------------------
 # PBE1PBE/def2TZVP empiricaldispersion=GD3BJ int=(grid=ultrafine) geom
 =check guess=read scrf=(smd,solvent=Chloroform)
 ----------------------------------------------------------------------

 ---------------
 1es1_III_H_solv
 ---------------
 Structure from the checkpoint file:  "1es1_III_H.chk"
 Charge =  1 Multiplicity = 6

                         Standard orientation:
 ---------------------------------------------------------------------
 Center     Atomic      Atomic             Coordinates (Angstroms)
 Number     Number       Type             X           Y           Z
 ---------------------------------------------------------------------
      1          6           0       -2.376143   -0.158234    5.582419
      2          6           0       -1.849930    0.387159    4.293872
      3          7           0       -1.578163    1.720338    4.069240
      4          6           0       -1.548717   -0.252873    3.136194
      5          6           0       -1.134542    1.839813    2.814967
      6          7           0       -1.100846    0.666369    2.211854
      7          6           0        0.492488   -2.311109   -4.720870
      8          6           0        0.137980   -1.290222   -3.691599
      9          7           0        0.064346    0.060284   -3.940392
     10          6           0       -0.100267   -1.434919   -2.365205
     11          6           0       -0.206164    0.674143   -2.783848
     12          7           0       -0.314690   -0.196163   -1.801193
     13          6           0        2.580579   -0.318988    0.848554
     14          6           0       -1.264239   -3.212404    0.802467
     15          6           0       -4.021767    0.450955   -0.689125
     16          6           0       -0.217458    3.474221   -0.347774
     17          6           0        1.777270   -1.444853    0.838492
     18          6           0        2.264017   -2.780018    1.073423
     19          6           0        1.170587   -3.578740    1.124239
     20          6           0        0.017919   -2.732608    0.892698
     21          6           0        1.165071   -5.080504    1.305762
     22          6           0        3.705352   -3.264006    1.184463
     23          6           0        4.484369   -3.201514   -0.122651
     24          6           0        3.787773   -3.935281   -1.247163
     25          8           0        3.539582   -5.150158   -1.105867
     26          8           0        3.483353   -3.294029   -2.273536
     27          6           0       -2.358136   -2.441833    0.423677
     28          6           0       -3.661609   -3.015666    0.141846
     29          6           0       -4.426249   -1.992472   -0.318825
     30          6           0       -3.606946   -0.792234   -0.269507
     31          6           0       -4.035878   -4.497255    0.302308
     32          6           0       -5.654240   -2.134150   -0.940674
     33          6           0       -6.851707   -1.801503   -0.335703
     34          6           0       -3.211060    1.587157   -0.764124
     35          6           0       -3.691543    2.887398   -1.197214
     36          6           0       -2.653297    3.770407   -1.070169
     37          6           0       -1.526759    2.985827   -0.563604
     38          6           0       -5.149860    3.203268   -1.560783
     39          6           0       -2.612248    5.139281   -1.340673
     40          6           0       -3.665314    5.955020   -1.771133
     41          6           0        0.865427    2.684600    0.075569
     42          6           0        2.203748    3.173138    0.395667
     43          6           0        2.980533    2.102598    0.695824
     44          6           0        2.127857    0.959533    0.603244
     45          6           0        2.657374    4.615141    0.521609
     46          6           0        4.473976    2.120190    1.027343
     47          6           0        5.287805    2.260104   -0.246727
     48          6           0        6.749057    2.565944    0.022361
     49          8           0        7.490249    2.815605   -0.952242
     50          8           0        7.155736    2.563120    1.204820
     51          7           0        0.392524   -1.422220    0.682998
     52          7           0       -2.311195   -1.089399    0.147173
     53          7           0       -1.889324    1.643010   -0.384390
     54          7           0        0.818749    1.315536    0.277398
     55         26           0       -0.735671    0.118124    0.211960
     56          1           0       -2.614104   -1.194289    5.460501
     57          1           0       -1.633566   -0.050194    6.345182
     58          1           0       -3.257406    0.379406    5.863877
     59          1           0       -1.643811   -1.305175    2.967324
     60          1           0       -0.845035    2.763880    2.359791
     61          1           0        0.080271   -3.257980   -4.440846
     62          1           0        0.094253   -2.015042   -5.668843
     63          1           0        1.557109   -2.392243   -4.790868
     64          1           0       -0.118932   -2.365957   -1.838213
     65          1           0       -0.319469    1.732174   -2.671455
     66          1           0        3.621272   -0.448991    1.060585
     67          1           0       -1.432828   -4.242466    1.037944
     68          1           0       -5.045785    0.556158   -0.981046
     69          1           0       -0.039022    4.515368   -0.518278
     70          1           0        0.526475   -5.526125    0.571925
     71          1           0        2.159653   -5.457507    1.189248
     72          1           0        0.805182   -5.320142    2.284513
     73          1           0        3.645179   -4.301769    1.438093
     74          1           0        4.192268   -2.578813    1.846521
     75          1           0        5.400510   -3.726017    0.051942
     76          1           0        4.504190   -2.170421   -0.407877
     77          1           0       -4.661787   -4.797231   -0.512033
     78          1           0       -3.146086   -5.091526    0.305958
     79          1           0       -4.560390   -4.634746    1.224741
     80          1           0       -5.677991   -2.519990   -1.938403
     81          1           0       -6.857699   -1.413469    0.661440
     82          1           0       -7.772686   -1.932032   -0.864533
     83          1           0       -5.696987    4.122782   -1.567480
     84          1           0       -5.179180    3.402799   -0.509961
     85          1           0       -4.651642    3.703182   -2.365001
     86          1           0       -1.666594    5.620645   -1.203096
     87          1           0       -4.637172    5.535750   -1.927995
     88          1           0       -3.498367    6.997800   -1.943294
     89          1           0        3.710180    4.674988    0.340178
     90          1           0        2.137293    5.216486   -0.194491
     91          1           0        2.444630    4.971112    1.507978
     92          1           0        4.708531    1.160070    1.437286
     93          1           0        4.650106    3.005054    1.602577
     94          1           0        4.895156    3.114761   -0.756911
     95          1           0        5.267897    1.299752   -0.718136
     96          1           0        7.501935    2.226079   -1.709819
     97          1           0        3.132192   -5.643275   -1.821736
     98          1           0       -1.692688    2.464403    4.727458
     99          1           0        0.190561    0.503883   -4.827686
 ---------------------------------------------------------------------

 SCF Done:  E(UPBE1PBE) =  -3627.42497888     A.U. after   18 cycles

 Alpha virt. eigenvalues --    1.12150   1.12206   1.12913   1.13095   1.13281
 Alpha virt. eigenvalues --    1.13292   1.13548   1.14088   1.14336   1.14635
 Alpha virt. eigenvalues --    1.14856   1.14927   1.15444   1.15577   1.16046

  Beta  occ. eigenvalues -- -256.46316 -30.19522 -26.02739 -26.02704 -26.02673
  Beta  occ. eigenvalues --  -19.28025 -19.27032 -19.19533 -19.19012 -14.46144
  Beta  occ. eigenvalues --  -14.45896 -14.41048 -14.40839 -14.40497 -14.40073
  Beta  occ. eigenvalues --  -14.40048 -14.39718 -10.36573 -10.36436 -10.30277
  Beta  occ. eigenvalues --  -10.29935 -10.29594 -10.29025 -10.28378 -10.28357
  Beta  occ. eigenvalues --  -10.28037 -10.27975 -10.27946 -10.27715 -10.27698
  Beta  occ. eigenvalues --  -10.27663 -10.27326 -10.25436 -10.25414 -10.25174
  Beta  occ. eigenvalues --  -10.25152 -10.25068 -10.24908 -10.24890 -10.24849
  Beta  occ. eigenvalues --  -10.24595 -10.24400 -10.24342 -10.24214 -10.24207
  Beta  occ. eigenvalues --  -10.24200 -10.24179 -10.24147 -10.24144 -10.24082
  Beta  occ. eigenvalues --  -10.23870 -10.23607 -10.23274 -10.23039 -10.22722
  Beta  occ. eigenvalues --  -10.22636 -10.22551 -10.22501 -10.20536  -3.48643
  Beta  occ. eigenvalues --   -2.22998  -2.22989  -2.22941  -1.18567  -1.17826
  Beta  occ. eigenvalues --   -1.07906  -1.07757  -1.04385  -1.03985  -1.00923
  Beta  occ. eigenvalues --   -1.00029  -0.99621  -0.98756  -0.93049  -0.92903
  Beta  occ. eigenvalues --   -0.88080  -0.86807  -0.86126  -0.85886  -0.85593
  Beta  occ. eigenvalues --   -0.84091  -0.83380  -0.82377  -0.82133  -0.81747
  Beta  occ. eigenvalues --   -0.80890  -0.80599  -0.78849  -0.78177  -0.76379
  Beta  occ. eigenvalues --   -0.75779  -0.74450  -0.73656  -0.73553  -0.73408
  Beta  occ. eigenvalues --   -0.71971  -0.71842  -0.70929  -0.68748  -0.68302
  Beta  occ. eigenvalues --   -0.66949  -0.66803  -0.66339  -0.66117  -0.64885
  Beta  occ. eigenvalues --   -0.64313  -0.63618  -0.63391  -0.61878  -0.60376
  Beta  occ. eigenvalues --   -0.58356  -0.58134  -0.58031  -0.57721  -0.57184
  Beta  occ. eigenvalues --   -0.56560  -0.55425  -0.54721  -0.54513  -0.53859
  Beta  occ. eigenvalues --   -0.53099  -0.53018  -0.52632  -0.52185  -0.51580
  Beta  occ. eigenvalues --   -0.51375  -0.51147  -0.50169  -0.49876  -0.49549
  Beta  occ. eigenvalues --   -0.49439  -0.49222  -0.49138  -0.49045  -0.48570
  Beta  occ. eigenvalues --   -0.48064  -0.47850  -0.47484  -0.47041  -0.46460
  Beta  occ. eigenvalues --   -0.46346  -0.46100  -0.45385  -0.45377  -0.44964
  Beta  occ. eigenvalues --   -0.44940  -0.44869  -0.44632  -0.44375  -0.44190
  Beta  occ. eigenvalues --   -0.44046  -0.43987  -0.43800  -0.43691  -0.43250
  Beta  occ. eigenvalues --   -0.43017  -0.42820  -0.42774  -0.42546  -0.42344
  Beta  occ. eigenvalues --   -0.42184  -0.41892  -0.41603  -0.41179  -0.41021
  Beta  occ. eigenvalues --   -0.40858  -0.40492  -0.39937  -0.39765  -0.39532
  Beta  occ. eigenvalues --   -0.39095  -0.38828  -0.38459  -0.38394  -0.38274
  Beta  occ. eigenvalues --   -0.37883  -0.36891  -0.36770  -0.36643  -0.36477
  Beta  occ. eigenvalues --   -0.35681  -0.35460  -0.35067  -0.34375  -0.34237
  Beta  occ. eigenvalues --   -0.34093  -0.33525  -0.32354  -0.30914  -0.30327
  Beta  occ. eigenvalues --   -0.29439  -0.29264  -0.28703  -0.27286  -0.26877
  Beta  occ. eigenvalues --   -0.26455  -0.26114  -0.25986  -0.25307  -0.22752
  Beta  occ. eigenvalues --   -0.22127  -0.21577
  Beta virt. eigenvalues --   -0.12433  -0.12225  -0.10239  -0.08444  -0.08050
  Beta virt. eigenvalues --   -0.04998  -0.03583  -0.02541  -0.02135  -0.01483
  Beta virt. eigenvalues --   -0.01139  -0.01060   0.00086   0.00182   0.00917

 Mulliken charges and spin densities:
               1          2
     1  C   -0.401078   0.000839
     2  C    0.136974   0.004244
     3  N   -0.193470   0.004248
     4  C   -0.220002   0.002174
     5  C    0.017209   0.006050
     6  N   -0.010367   0.046206
     7  C   -0.399515   0.000915
     8  C    0.128767   0.005142
     9  N   -0.195152   0.004170
    10  C   -0.213262   0.001918
    11  C    0.002274   0.005353
    12  N   -0.004846   0.053441
    13  C   -0.523380  -0.026634
    14  C   -0.618357  -0.021858
    15  C   -0.512463  -0.016971
    16  C   -0.610241  -0.010413
    17  C    0.312903   0.030159
    18  C   -0.156049   0.014807
    19  C    0.016190   0.021905
    20  C    0.207831   0.019948
    21  C   -0.408962  -0.000361
    22  C   -0.235735  -0.000371
    23  C   -0.137644   0.000581
    24  C    0.282127   0.000130
    25  O   -0.328934  -0.000010
    26  O   -0.437691  -0.000014
    27  C    0.326987   0.021523
    28  C   -0.012269   0.013306
    29  C    0.011025   0.020920
    30  C    0.322346   0.017929
    31  C   -0.410535   0.000380
    32  C   -0.355907  -0.003744
    33  C   -0.289151   0.004894
    34  C    0.325035   0.017547
    35  C   -0.212826   0.009147
    36  C    0.113480   0.017315
    37  C    0.168801   0.017710
    38  C   -0.771911   0.002413
    39  C   -0.196184  -0.007878
    40  C   -0.320792   0.014825
    41  C    0.266789   0.012739
    42  C   -0.034794   0.026180
    43  C   -0.017793   0.010601
    44  C    0.314700   0.032281
    45  C   -0.420536  -0.000079
    46  C   -0.333405   0.000382
    47  C   -0.240902   0.000456
    48  C    0.305789   0.000096
    49  O   -0.336005   0.000038
    50  O   -0.402945   0.000053
    51  N   -0.045261   0.049687
    52  N   -0.047210   0.042943
    53  N   -0.034035   0.047899
    54  N    0.003756   0.055603
    55  Fe  -0.090172   4.412653
    56  H    0.160140   0.000023
    57  H    0.156428   0.000127
    58  H    0.153818   0.000186
    59  H    0.181553   0.000640
    60  H    0.197080   0.000619
    61  H    0.156283   0.000029
    62  H    0.150403   0.000198
    63  H    0.162281   0.000149
    64  H    0.168184   0.000860
    65  H    0.197853   0.000752
    66  H    0.146354   0.000861
    67  H    0.164234   0.000978
    68  H    0.187221   0.000481
    69  H    0.154656   0.000342
    70  H    0.150790   0.000514
    71  H    0.144816   0.000423
    72  H    0.160920   0.000951
    73  H    0.136356   0.000391
    74  H    0.139047   0.000393
    75  H    0.142111   0.000098
    76  H    0.119246  -0.000016
    77  H    0.157148   0.000416
    78  H    0.143706   0.000036
    79  H    0.162820   0.000495
    80  H    0.158465   0.001261
    81  H    0.157456  -0.000163
    82  H    0.158865  -0.000058
    83  H    0.293198   0.001244
    84  H    0.292680   0.000362
    85  H    0.257404  -0.000105
    86  H    0.141659   0.000344
    87  H    0.115682  -0.000628
    88  H    0.165885  -0.000611
    89  H    0.150224   0.000557
    90  H    0.151856   0.000328
    91  H    0.162033   0.001192
    92  H    0.126378   0.000011
    93  H    0.152446   0.000383
    94  H    0.148045  -0.000031
    95  H    0.158829  -0.000006
    96  H    0.389445  -0.000003
    97  H    0.375983   0.000001
    98  H    0.284151   0.001267
    99  H    0.282664   0.001288
 Sum of Mulliken charges =   1.00000   5.00000

 Dipole moment (field-independent basis, Debye):
    X=             -2.3485    Y=             -0.2140    Z=             -0.9292  Tot=              2.5347
 Quadrupole moment (field-independent basis, Debye-Ang):
   XX=           -309.8957   YY=           -228.7614   ZZ=           -253.1150
   XY=            -31.2035   XZ=            -41.0765   YZ=             -1.2669

 Normal termination of Gaussian 16 at Thu Oct 20 19:03:42 2022.
