 Gaussian 16, Revision A.03,
 Gaussian 16:  ES64L-G16RevA.03 25-Dec-2016

 ----------------------------------------------------------------------
 # PBE1PBE/def2TZVP empiricaldispersion=GD3BJ scf=maxcycle=999 geom=che
 ck pop=nbo
 ----------------------------------------------------------------------

 ---------
 1a6g_II_Q
 ---------
 Structure from the checkpoint file:  "1a6g_II_Q.chk"
 Charge =  0 Multiplicity = 5

                         Standard orientation:
 ---------------------------------------------------------------------
 Center     Atomic      Atomic             Coordinates (Angstroms)
 Number     Number       Type             X           Y           Z
 ---------------------------------------------------------------------
      1          6           0       -1.668641   -0.145279    5.292812
      2          6           0       -1.254598   -0.464156    3.872057
      3          7           0       -0.483759   -1.549544    3.561379
      4          6           0       -1.440696    0.196128    2.683998
      5          6           0       -0.249098   -1.484741    2.210824
      6          7           0       -0.821448   -0.449671    1.667667
      7         26           0       -0.723984    0.098720   -0.317666
      8          6           0        2.602199   -0.452503   -0.308600
      9          6           0       -1.288254   -3.183982   -1.130162
     10          6           0       -4.050075    0.662815   -0.381545
     11          6           0       -0.167747    3.346614    0.413137
     12          7           0        0.427754   -1.492778   -0.681890
     13          6           0        1.785478   -1.552720   -0.571465
     14          6           0        2.242471   -2.903006   -0.832461
     15          6           0        1.127798   -3.637650   -1.110093
     16          6           0        0.058414   -2.804100   -0.985911
     17          6           0        1.080326   -5.157057   -1.413901
     18          6           0        3.674702   -3.431078   -0.700846
     19          6           0        3.855934   -4.280191    0.587903
     20          6           0        3.536533   -3.512247    1.829572
     21          8           0        2.595994   -3.898986    2.569866
     22          8           0        4.222159   -2.484528    2.078858
     23          7           0       -2.378579   -0.999116   -0.668528
     24          6           0       -2.422961   -2.382987   -1.014722
     25          6           0       -3.770152   -2.797530   -1.176984
     26          6           0       -4.526313   -1.733658   -0.967353
     27          6           0       -3.654506   -0.603317   -0.652072
     28          6           0       -4.190256   -4.236376   -1.483579
     29          6           0       -6.026696   -1.610473   -1.111223
     30          6           0       -6.680165   -2.342620   -2.045838
     31          7           0       -1.853023    1.642466    0.001596
     32          6           0       -3.276022    1.798386   -0.142558
     33          6           0       -3.726764    3.140054   -0.038615
     34          6           0       -2.619367    3.899004    0.177573
     35          6           0       -1.459521    3.003438    0.203034
     36          6           0       -5.187114    3.592041   -0.158132
     37          6           0       -2.475848    5.397954    0.243669
     38          6           0       -3.575721    6.187318    0.182421
     39          7           0        0.872470    1.209764    0.064770
     40          6           0        0.940568    2.555549    0.357252
     41          6           0        2.315034    3.001552    0.463842
     42          6           0        3.072133    1.942310    0.204909
     43          6           0        2.195439    0.846664   -0.012707
     44          6           0        2.718319    4.445503    0.748162
     45          6           0        4.595561    1.896357    0.035348
     46          6           0        5.017935    2.207241   -1.431061
     47          6           0        6.472441    2.383974   -1.657329
     48          8           0        6.986048    3.473400   -1.294814
     49          8           0        7.048103    1.379372   -2.235236
     50          6           0       -0.707283    0.741667   -2.022664
     51          8           0       -0.696536    1.279695   -2.973117
     52          1           0       -1.836314    0.907229    5.387752
     53          1           0       -2.569273   -0.672632    5.528737
     54          1           0       -0.892990   -0.445045    5.966167
     55          1           0       -0.155767   -2.251803    4.193244
     56          1           0        0.334506   -2.199547    1.669198
     57          1           0       -2.000820    1.101266    2.574979
     58          1           0        5.041394    2.617982    0.687567
     59          1           0        4.947155    0.921234    0.300706
     60          1           0        4.678611    1.405425   -2.053034
     61          1           0        4.521209    3.103767   -1.738317
     62          1           0        7.554201    1.513922   -3.039823
     63          1           0        2.724768    5.000719   -0.166493
     64          1           0        2.017339    4.884539    1.426967
     65          1           0        3.695637    4.463766    1.183381
     66          1           0        0.006582    4.374245    0.654974
     67          1           0       -1.505558    5.838816    0.338950
     68          1           0       -3.864893    6.630747   -0.747445
     69          1           0       -4.154954    6.367134    1.063928
     70          1           0       -5.452571    3.671056   -1.191665
     71          1           0       -5.822415    2.875707    0.319527
     72          1           0       -5.305408    4.544762    0.314339
     73          1           0       -5.108706    0.814244   -0.345925
     74          1           0       -6.572323   -0.945247   -0.475090
     75          1           0       -7.646290   -2.747955   -1.828566
     76          1           0       -6.229988   -2.515355   -3.001036
     77          1           0       -3.495847   -4.671813   -2.171395
     78          1           0       -4.199738   -4.805871   -0.577772
     79          1           0       -5.168989   -4.237723   -1.915991
     80          1           0       -1.463053   -4.215074   -1.356426
     81          1           0        3.657692   -0.625715   -0.337457
     82          1           0        1.925238   -5.427758   -2.012018
     83          1           0        1.103234   -5.705339   -0.495335
     84          1           0        0.179738   -5.386813   -1.944046
     85          1           0        4.350770   -2.602274   -0.670571
     86          1           0        3.902894   -4.036883   -1.552802
     87          1           0        4.870503   -4.616001    0.640649
     88          1           0        3.211609   -5.132707    0.533493
     89          1           0        4.715457   -2.054597    1.376422
 ---------------------------------------------------------------------

 SCF Done:  E(UPBE1PBE) =  -3475.45023686     A.U. after   44 cycles

 Alpha virt. eigenvalues --    0.77071   0.77340   0.77486   0.77759   0.78237
 Alpha virt. eigenvalues --    0.78321   0.78541   0.79030   0.79124   0.79750
 Alpha virt. eigenvalues --    0.80473   0.80484   0.80705   0.80983   0.81466

  Beta  occ. eigenvalues -- -256.34097 -30.09134 -25.93426 -25.91547 -25.91063
  Beta  occ. eigenvalues --  -19.27677 -19.27364 -19.26618 -19.19163 -19.18108
  Beta  occ. eigenvalues --  -14.44269 -14.39381 -14.37694 -14.36497 -14.36456
  Beta  occ. eigenvalues --  -14.36115 -10.36103 -10.35680 -10.31403 -10.27564
  Beta  occ. eigenvalues --  -10.26090 -10.25243 -10.24967 -10.24683 -10.24535
  Beta  occ. eigenvalues --  -10.24412 -10.24263 -10.24145 -10.23858 -10.23760
  Beta  occ. eigenvalues --  -10.23741 -10.23659 -10.23615 -10.23048 -10.22995
  Beta  occ. eigenvalues --  -10.22918 -10.22849 -10.22654 -10.22553 -10.22317
  Beta  occ. eigenvalues --  -10.22298 -10.22016 -10.22002 -10.21956 -10.21795
  Beta  occ. eigenvalues --  -10.21739 -10.21707 -10.21648 -10.21369 -10.21237
  Beta  occ. eigenvalues --  -10.20961 -10.20959 -10.20866 -10.20743 -10.20630
  Beta  occ. eigenvalues --   -3.41184  -2.20276  -2.14740  -2.13718  -1.18988
  Beta  occ. eigenvalues --   -1.17161  -1.15490  -1.05730  -1.03364  -1.02741
  Beta  occ. eigenvalues --   -0.97926  -0.97007  -0.96658  -0.94897  -0.91879
  Beta  occ. eigenvalues --   -0.84313  -0.84027  -0.83392  -0.82541  -0.81951
  Beta  occ. eigenvalues --   -0.81113  -0.80749  -0.80203  -0.79559  -0.78758
  Beta  occ. eigenvalues --   -0.77001  -0.76016  -0.75213  -0.74077  -0.73027
  Beta  occ. eigenvalues --   -0.72420  -0.72111  -0.71404  -0.70229  -0.70076
  Beta  occ. eigenvalues --   -0.69657  -0.67716  -0.65985  -0.65590  -0.65073
  Beta  occ. eigenvalues --   -0.64773  -0.61198  -0.60801  -0.59742  -0.59585
  Beta  occ. eigenvalues --   -0.57908  -0.57127  -0.56674  -0.56232  -0.55189
  Beta  occ. eigenvalues --   -0.54765  -0.54072  -0.53974  -0.52341  -0.52146
  Beta  occ. eigenvalues --   -0.51853  -0.51312  -0.50667  -0.50300  -0.49628
  Beta  occ. eigenvalues --   -0.49167  -0.48993  -0.48777  -0.48568  -0.48482
  Beta  occ. eigenvalues --   -0.48019  -0.47800  -0.47543  -0.47260  -0.45916
  Beta  occ. eigenvalues --   -0.45743  -0.45457  -0.45299  -0.44778  -0.44466
  Beta  occ. eigenvalues --   -0.44299  -0.43916  -0.43649  -0.43468  -0.43378
  Beta  occ. eigenvalues --   -0.43278  -0.43185  -0.43010  -0.42881  -0.42717
  Beta  occ. eigenvalues --   -0.42451  -0.42213  -0.42021  -0.41630  -0.41215
  Beta  occ. eigenvalues --   -0.41046  -0.40980  -0.40360  -0.40230  -0.39943
  Beta  occ. eigenvalues --   -0.39349  -0.39285  -0.38874  -0.38632  -0.38463
  Beta  occ. eigenvalues --   -0.38156  -0.37997  -0.37837  -0.37583  -0.37340
  Beta  occ. eigenvalues --   -0.36686  -0.36536  -0.36082  -0.35938  -0.35298
  Beta  occ. eigenvalues --   -0.35068  -0.34663  -0.33514  -0.32922  -0.32876
  Beta  occ. eigenvalues --   -0.32774  -0.32454  -0.31823  -0.30478  -0.28805
  Beta  occ. eigenvalues --   -0.28694  -0.28361  -0.27970  -0.27218  -0.26982
  Beta  occ. eigenvalues --   -0.25464  -0.24642  -0.23708  -0.22594  -0.19712
  Beta  occ. eigenvalues --   -0.19276  -0.18845  -0.18401
  Beta virt. eigenvalues --   -0.08484  -0.06864  -0.05693  -0.04347  -0.02336
  Beta virt. eigenvalues --   -0.02050  -0.01327  -0.00263   0.00363   0.01016
  Beta virt. eigenvalues --    0.01809   0.02302   0.02802   0.03017   0.03626

 Mulliken charges and spin densities:
               1          2
     1  C   -0.385751  -0.000237
     2  C    0.152979   0.000389
     3  N   -0.221999  -0.000764
     4  C   -0.197613  -0.000032
     5  C   -0.001330  -0.002091
     6  N    0.074475  -0.027801
     7  Fe  -0.232112   2.109579
     8  C   -0.484768  -0.059914
     9  C   -0.467312  -0.005353
    10  C   -0.446489   0.107255
    11  C   -0.413955   0.003323
    12  N   -0.060242   0.009233
    13  C    0.265071   0.023338
    14  C    0.010005   0.001121
    15  C   -0.075126   0.004355
    16  C    0.269985   0.010010
    17  C   -0.413443   0.000294
    18  C   -0.423057   0.000813
    19  C   -0.174865  -0.000829
    20  C    0.299194   0.000723
    21  O   -0.398096  -0.000020
    22  O   -0.275488  -0.000036
    23  N   -0.005785   0.084843
    24  C    0.254782   0.003216
    25  C   -0.171175  -0.013150
    26  C    0.083366   0.011225
    27  C    0.196412  -0.053860
    28  C   -0.367257   0.001981
    29  C   -0.222791   0.000675
    30  C   -0.321459  -0.001076
    31  N   -0.092597   0.113898
    32  C    0.270232  -0.098944
    33  C   -0.086980   0.287780
    34  C   -0.062480  -0.165051
    35  C    0.234739   0.012412
    36  C   -0.366261  -0.015465
    37  C   -0.121186   0.690324
    38  C   -0.330968   1.004490
    39  N   -0.035166   0.029542
    40  C    0.256345  -0.011672
    41  C   -0.081588   0.012913
    42  C   -0.040516  -0.008636
    43  C    0.285741   0.024672
    44  C   -0.399357  -0.000221
    45  C   -0.336053   0.001976
    46  C   -0.151912  -0.000576
    47  C    0.302340   0.000010
    48  O   -0.354457   0.000058
    49  O   -0.373861  -0.000017
    50  C    0.122820  -0.097341
    51  O   -0.005175  -0.036133
    52  H    0.146662   0.000006
    53  H    0.145699   0.000037
    54  H    0.131327  -0.000019
    55  H    0.245721  -0.000050
    56  H    0.203969  -0.000154
    57  H    0.143747  -0.000091
    58  H    0.135098   0.000061
    59  H    0.100703  -0.000320
    60  H    0.113413   0.000058
    61  H    0.137160  -0.000003
    62  H    0.349708  -0.000001
    63  H    0.144286   0.000430
    64  H    0.135516   0.000005
    65  H    0.137642   0.000455
    66  H    0.085407   0.002219
    67  H    0.130475   0.017841
    68  H    0.142907   0.001786
    69  H    0.142704   0.007493
    70  H    0.146206   0.013252
    71  H    0.131008   0.008886
    72  H    0.134094  -0.001381
    73  H    0.088108  -0.004655
    74  H    0.119898   0.000065
    75  H    0.131453   0.000041
    76  H    0.148229   0.000047
    77  H    0.126174  -0.000448
    78  H    0.136682  -0.000759
    79  H    0.143375   0.000325
    80  H    0.105224   0.000077
    81  H    0.057748   0.002904
    82  H    0.131813   0.000230
    83  H    0.151529   0.000212
    84  H    0.133349  -0.000097
    85  H    0.142930  -0.000034
    86  H    0.135391   0.000315
    87  H    0.131196   0.000096
    88  H    0.119912   0.000036
    89  H    0.333719  -0.000093
 Sum of Mulliken charges =  -0.00000   4.00000

 Dipole moment (field-independent basis, Debye):
    X=              1.0210    Y=             -2.2285    Z=              0.4133  Tot=              2.4858
 Quadrupole moment (field-independent basis, Debye-Ang):
   XX=           -285.2765   YY=           -294.7149   ZZ=           -285.3185
   XY=            -24.5928   XZ=            -24.4138   YZ=              8.5236

 Summary of Natural Population Analysis:

                                       Natural Population
                Natural  -----------------------------------------------
    Atom  No    Charge         Core      Valence    Rydberg      Total
 -----------------------------------------------------------------------
      C    1   -0.31955      0.99970     2.31661    0.00324     3.31955
      C    2    0.05552      0.99958     1.93703    0.00786     2.94448
      N    3   -0.24488      0.99970     2.73551    0.00967     3.74488
      C    4   -0.03960      0.99948     2.03037    0.00974     3.03960
      C    5    0.10206      0.99967     1.88884    0.00943     2.89794
      N    6   -0.17936      0.99968     2.65450    0.02518     3.67936
     Fe    7    0.93812      8.99183     3.04359    0.02646    12.06188
      C    8   -0.13166      0.99951     2.12356    0.00859     3.13166
      C    9   -0.10145      0.99952     2.09442    0.00750     3.10145
      C   10   -0.07209      0.99947     2.06463    0.00798     3.07209
      C   11   -0.12130      0.99944     2.11353    0.00833     3.12130
      N   12   -0.18213      0.99970     2.66235    0.02008     3.68213
      C   13    0.06946      0.99952     1.92041    0.01060     2.93054
      C   14   -0.02361      0.99943     2.01434    0.00984     3.02361
      C   15   -0.01759      0.99930     2.00920    0.00909     3.01759
      C   16    0.06142      0.99942     1.92898    0.01018     2.93858
      C   17   -0.31560      0.99970     2.31219    0.00371     3.31560
      C   18   -0.20569      0.99967     2.19870    0.00732     3.20569
      C   19   -0.25680      0.99963     2.24934    0.00783     3.25680
      C   20    0.38600      0.99972     1.59704    0.01724     2.61400
      O   21   -0.30122      0.99989     3.28970    0.01162     4.30122
      O   22   -0.31643      0.99981     3.30129    0.01532     4.31643
      N   23   -0.13253      0.99969     2.61328    0.01956     3.63253
      C   24    0.06421      0.99950     1.92659    0.00970     2.93579
      C   25   -0.01091      0.99931     2.00235    0.00925     3.01091
      C   26   -0.03939      0.99935     2.02924    0.01079     3.03939
      C   27    0.05761      0.99952     1.93264    0.01024     2.94239
      C   28   -0.31730      0.99970     2.31394    0.00367     3.31730
      C   29   -0.09644      0.99962     2.08725    0.00958     3.09644
      C   30   -0.20533      0.99965     2.19691    0.00878     3.20533
      N   31   -0.13224      0.99971     2.61353    0.01901     3.63224
      C   32    0.03450      0.99950     1.95642    0.00958     2.96550
      C   33    0.10746      0.99936     1.88460    0.00858     2.89254
      C   34   -0.09208      0.99939     2.08251    0.01018     3.09208
      C   35    0.08538      0.99949     1.90528    0.00985     2.91462
      C   36   -0.31458      0.99969     2.31149    0.00339     3.31458
      C   37    0.22931      0.99961     1.76299    0.00809     2.77069
      C   38    0.30162      0.99964     1.69126    0.00749     2.69838
      N   39   -0.16469      0.99969     2.64494    0.02006     3.66469
      C   40    0.07250      0.99951     1.91788    0.01010     2.92750
      C   41   -0.00242      0.99936     1.99431    0.00875     3.00242
      C   42   -0.02802      0.99932     2.01898    0.00972     3.02802
      C   43    0.07671      0.99950     1.91361    0.01018     2.92329
      C   44   -0.31892      0.99970     2.31561    0.00361     3.31892
      C   45   -0.19836      0.99966     2.19221    0.00649     3.19836
      C   46   -0.25361      0.99961     2.24519    0.00882     3.25361
      C   47    0.38224      0.99969     1.60093    0.01713     2.61776
      O   48   -0.28712      0.99989     3.27565    0.01158     4.28712
      O   49   -0.34291      0.99983     3.33027    0.01281     4.34291
      C   50    0.42615      0.99944     1.54683    0.02758     2.57385
      O   51   -0.23361      0.99985     3.21557    0.01819     4.23361
      H   52    0.11675      0.00000     0.38274    0.00051     0.38325
      H   53    0.11157      0.00000     0.38770    0.00073     0.38843
      H   54    0.10917      0.00000     0.39012    0.00070     0.39083
      H   55    0.21304      0.00000     0.28602    0.00094     0.28696
      H   56    0.11578      0.00000     0.38316    0.00106     0.38422
      H   57    0.11238      0.00000     0.38691    0.00071     0.38762
      H   58    0.11421      0.00000     0.38492    0.00087     0.38579
      H   59    0.10117      0.00000     0.39798    0.00084     0.39883
      H   60    0.10859      0.00000     0.39071    0.00070     0.39141
      H   61    0.12131      0.00000     0.37809    0.00061     0.37869
      H   62    0.25685      0.00000     0.24187    0.00128     0.24315
      H   63    0.11152      0.00000     0.38768    0.00080     0.38848
      H   64    0.10982      0.00000     0.38950    0.00068     0.39018
      H   65    0.11154      0.00000     0.38771    0.00076     0.38846
      H   66    0.10577      0.00000     0.39290    0.00132     0.39423
      H   67    0.12067      0.00000     0.37873    0.00060     0.37933
      H   68    0.10267      0.00000     0.39673    0.00060     0.39733
      H   69    0.10181      0.00000     0.39758    0.00061     0.39819
      H   70    0.11794      0.00000     0.38139    0.00067     0.38206
      H   71    0.11287      0.00000     0.38651    0.00062     0.38713
      H   72    0.11314      0.00000     0.38622    0.00064     0.38686
      H   73    0.10376      0.00000     0.39498    0.00125     0.39624
      H   74    0.10259      0.00000     0.39648    0.00093     0.39741
      H   75    0.09912      0.00000     0.40009    0.00080     0.40088
      H   76    0.09993      0.00000     0.39913    0.00094     0.40007
      H   77    0.10791      0.00000     0.39139    0.00070     0.39209
      H   78    0.11018      0.00000     0.38899    0.00083     0.38982
      H   79    0.11662      0.00000     0.38263    0.00076     0.38338
      H   80    0.10513      0.00000     0.39352    0.00135     0.39487
      H   81    0.09520      0.00000     0.40288    0.00191     0.40480
      H   82    0.10753      0.00000     0.39167    0.00080     0.39247
      H   83    0.11100      0.00000     0.38815    0.00085     0.38900
      H   84    0.10952      0.00000     0.38982    0.00065     0.39048
      H   85    0.09704      0.00000     0.40211    0.00085     0.40296
      H   86    0.11460      0.00000     0.38447    0.00093     0.38540
      H   87    0.11109      0.00000     0.38820    0.00071     0.38891
      H   88    0.11925      0.00000     0.38001    0.00074     0.38075
      H   89    0.25008      0.00000     0.24879    0.00114     0.24992
 =======================================================================
   * Total *    2.00000     58.97117   128.42689    0.60194   188.00000

 Normal termination of Gaussian 16 at Fri Sep  9 07:06:47 2022.
