 Gaussian 16, Revision A.03,
 Gaussian 16:  ES64L-G16RevA.03 25-Dec-2016

 ----------------------------------------------------------------------
 # PBE1PBE/def2TZVP empiricaldispersion=GD3BJ scf=maxcycle=999 geom=che
 ck pop=nbo
 ----------------------------------------------------------------------

 ----------
 1a6g_III_D
 ----------
 Structure from the checkpoint file:  "1a6g_III_D.chk"
 Charge =  1 Multiplicity = 2

                         Standard orientation:
 ---------------------------------------------------------------------
 Center     Atomic      Atomic             Coordinates (Angstroms)
 Number     Number       Type             X           Y           Z
 ---------------------------------------------------------------------
      1          6           0       -1.668641   -0.145279    5.292812
      2          6           0       -1.254598   -0.464156    3.872057
      3          7           0       -0.483759   -1.549544    3.561379
      4          6           0       -1.440696    0.196128    2.683998
      5          6           0       -0.249098   -1.484741    2.210824
      6          7           0       -0.821448   -0.449671    1.667667
      7         26           0       -0.723984    0.098720   -0.317666
      8          6           0        2.602199   -0.452503   -0.308600
      9          6           0       -1.288254   -3.183982   -1.130162
     10          6           0       -4.050075    0.662815   -0.381545
     11          6           0       -0.167747    3.346614    0.413137
     12          7           0        0.427754   -1.492778   -0.681890
     13          6           0        1.785478   -1.552720   -0.571465
     14          6           0        2.242471   -2.903006   -0.832461
     15          6           0        1.127798   -3.637650   -1.110093
     16          6           0        0.058414   -2.804100   -0.985911
     17          6           0        1.080326   -5.157057   -1.413901
     18          6           0        3.674702   -3.431078   -0.700846
     19          6           0        3.855934   -4.280191    0.587903
     20          6           0        3.536533   -3.512247    1.829572
     21          8           0        2.595994   -3.898986    2.569866
     22          8           0        4.222159   -2.484528    2.078858
     23          7           0       -2.378579   -0.999116   -0.668528
     24          6           0       -2.422961   -2.382987   -1.014722
     25          6           0       -3.770152   -2.797530   -1.176984
     26          6           0       -4.526313   -1.733658   -0.967353
     27          6           0       -3.654506   -0.603317   -0.652072
     28          6           0       -4.190256   -4.236376   -1.483579
     29          6           0       -6.026696   -1.610473   -1.111223
     30          6           0       -6.680165   -2.342620   -2.045838
     31          7           0       -1.853023    1.642466    0.001596
     32          6           0       -3.276022    1.798386   -0.142558
     33          6           0       -3.726764    3.140054   -0.038615
     34          6           0       -2.619367    3.899004    0.177573
     35          6           0       -1.459521    3.003438    0.203034
     36          6           0       -5.187114    3.592041   -0.158132
     37          6           0       -2.475848    5.397954    0.243669
     38          6           0       -3.575721    6.187318    0.182421
     39          7           0        0.872470    1.209764    0.064770
     40          6           0        0.940568    2.555549    0.357252
     41          6           0        2.315034    3.001552    0.463842
     42          6           0        3.072133    1.942310    0.204909
     43          6           0        2.195439    0.846664   -0.012707
     44          6           0        2.718319    4.445503    0.748162
     45          6           0        4.595561    1.896357    0.035348
     46          6           0        5.017935    2.207241   -1.431061
     47          6           0        6.472441    2.383974   -1.657329
     48          8           0        6.986048    3.473400   -1.294814
     49          8           0        7.048103    1.379372   -2.235236
     50          6           0       -0.707283    0.741667   -2.022664
     51          8           0       -0.696536    1.279695   -2.973117
     52          1           0       -1.836314    0.907229    5.387752
     53          1           0       -2.569273   -0.672632    5.528737
     54          1           0       -0.892990   -0.445045    5.966167
     55          1           0       -0.155767   -2.251803    4.193244
     56          1           0        0.334506   -2.199547    1.669198
     57          1           0       -2.000820    1.101266    2.574979
     58          1           0        5.041394    2.617982    0.687567
     59          1           0        4.947155    0.921234    0.300706
     60          1           0        4.678611    1.405425   -2.053034
     61          1           0        4.521209    3.103767   -1.738317
     62          1           0        7.554201    1.513922   -3.039823
     63          1           0        2.724768    5.000719   -0.166493
     64          1           0        2.017339    4.884539    1.426967
     65          1           0        3.695637    4.463766    1.183381
     66          1           0        0.006582    4.374245    0.654974
     67          1           0       -1.505558    5.838816    0.338950
     68          1           0       -3.864893    6.630747   -0.747445
     69          1           0       -4.154954    6.367134    1.063928
     70          1           0       -5.452571    3.671056   -1.191665
     71          1           0       -5.822415    2.875707    0.319527
     72          1           0       -5.305408    4.544762    0.314339
     73          1           0       -5.108706    0.814244   -0.345925
     74          1           0       -6.572323   -0.945247   -0.475090
     75          1           0       -7.646290   -2.747955   -1.828566
     76          1           0       -6.229988   -2.515355   -3.001036
     77          1           0       -3.495847   -4.671813   -2.171395
     78          1           0       -4.199738   -4.805871   -0.577772
     79          1           0       -5.168989   -4.237723   -1.915991
     80          1           0       -1.463053   -4.215074   -1.356426
     81          1           0        3.657692   -0.625715   -0.337457
     82          1           0        1.925238   -5.427758   -2.012018
     83          1           0        1.103234   -5.705339   -0.495335
     84          1           0        0.179738   -5.386813   -1.944046
     85          1           0        4.350770   -2.602274   -0.670571
     86          1           0        3.902894   -4.036883   -1.552802
     87          1           0        4.870503   -4.616001    0.640649
     88          1           0        3.211609   -5.132707    0.533493
     89          1           0        4.715457   -2.054597    1.376422
 ---------------------------------------------------------------------

 SCF Done:  E(UPBE1PBE) =  -3475.28579994     A.U. after   53 cycles

 Alpha virt. eigenvalues --    0.66702   0.67074   0.67513   0.67901   0.68209
 Alpha virt. eigenvalues --    0.68328   0.68764   0.69212   0.69282   0.69583
 Alpha virt. eigenvalues --    0.69958   0.70249   0.70732   0.70993   0.71217

  Beta  occ. eigenvalues -- -256.45181 -30.22579 -26.05476 -26.05019 -26.04795
  Beta  occ. eigenvalues --  -19.37496 -19.35034 -19.33151 -19.25912 -19.25767
  Beta  occ. eigenvalues --  -14.52732 -14.51021 -14.48326 -14.48266 -14.48253
  Beta  occ. eigenvalues --  -14.47965 -10.43364 -10.42984 -10.41090 -10.40099
  Beta  occ. eigenvalues --  -10.37453 -10.37353 -10.37045 -10.36346 -10.35990
  Beta  occ. eigenvalues --  -10.35957 -10.35529 -10.35476 -10.35344 -10.35244
  Beta  occ. eigenvalues --  -10.35065 -10.34630 -10.33855 -10.33319 -10.32835
  Beta  occ. eigenvalues --  -10.32698 -10.32654 -10.32393 -10.32331 -10.32279
  Beta  occ. eigenvalues --  -10.32246 -10.32135 -10.32074 -10.32044 -10.31901
  Beta  occ. eigenvalues --  -10.31891 -10.31849 -10.31795 -10.31683 -10.30674
  Beta  occ. eigenvalues --  -10.30504 -10.30439 -10.30232 -10.30117 -10.29519
  Beta  occ. eigenvalues --   -3.56502  -2.32722  -2.31803  -2.31380  -1.28670
  Beta  occ. eigenvalues --   -1.24845  -1.22064  -1.14370  -1.10396  -1.10065
  Beta  occ. eigenvalues --   -1.09053  -1.08093  -1.08046  -1.07032  -1.00534
  Beta  occ. eigenvalues --   -0.95853  -0.94773  -0.93387  -0.93067  -0.92520
  Beta  occ. eigenvalues --   -0.92128  -0.91438  -0.89891  -0.88585  -0.88403
  Beta  occ. eigenvalues --   -0.88070  -0.86465  -0.86134  -0.84507  -0.83077
  Beta  occ. eigenvalues --   -0.82072  -0.81143  -0.80607  -0.79955  -0.78708
  Beta  occ. eigenvalues --   -0.78428  -0.77152  -0.76421  -0.75442  -0.73451
  Beta  occ. eigenvalues --   -0.73287  -0.72878  -0.70743  -0.70200  -0.69817
  Beta  occ. eigenvalues --   -0.68125  -0.67520  -0.66806  -0.66252  -0.65608
  Beta  occ. eigenvalues --   -0.64907  -0.64361  -0.63305  -0.62847  -0.62199
  Beta  occ. eigenvalues --   -0.61690  -0.60766  -0.60077  -0.59433  -0.59366
  Beta  occ. eigenvalues --   -0.59033  -0.58394  -0.58220  -0.58060  -0.57692
  Beta  occ. eigenvalues --   -0.57237  -0.56777  -0.56486  -0.56209  -0.55978
  Beta  occ. eigenvalues --   -0.55925  -0.55522  -0.55318  -0.54920  -0.54769
  Beta  occ. eigenvalues --   -0.54425  -0.53919  -0.53732  -0.53307  -0.53133
  Beta  occ. eigenvalues --   -0.53087  -0.52583  -0.52242  -0.52055  -0.51844
  Beta  occ. eigenvalues --   -0.51547  -0.51163  -0.51092  -0.50908  -0.50769
  Beta  occ. eigenvalues --   -0.50323  -0.50293  -0.50232  -0.50136  -0.49962
  Beta  occ. eigenvalues --   -0.49633  -0.49211  -0.49089  -0.48929  -0.48321
  Beta  occ. eigenvalues --   -0.47773  -0.47634  -0.47512  -0.47205  -0.46706
  Beta  occ. eigenvalues --   -0.46315  -0.46253  -0.45719  -0.45475  -0.45253
  Beta  occ. eigenvalues --   -0.44497  -0.43799  -0.43692  -0.43328  -0.42739
  Beta  occ. eigenvalues --   -0.42471  -0.40658  -0.40484  -0.40458  -0.40234
  Beta  occ. eigenvalues --   -0.39449  -0.38715  -0.37549  -0.36178  -0.35721
  Beta  occ. eigenvalues --   -0.35386  -0.35176  -0.33631  -0.32699  -0.32143
  Beta  occ. eigenvalues --   -0.31724  -0.31213  -0.30064  -0.29580
  Beta virt. eigenvalues --   -0.23334  -0.18010  -0.17486  -0.16757  -0.12381
  Beta virt. eigenvalues --   -0.09553  -0.09072  -0.09043  -0.08061  -0.07532
  Beta virt. eigenvalues --   -0.07378  -0.07264  -0.06562  -0.06267  -0.05978

 Mulliken charges and spin densities:
               1          2
     1  C   -0.375071   0.000004
     2  C    0.141558   0.000041
     3  N   -0.212693  -0.000037
     4  C   -0.192984  -0.000266
     5  C   -0.003600  -0.000258
     6  N    0.059224   0.000321
     7  Fe  -0.362926  -0.005412
     8  C   -0.485482   0.014922
     9  C   -0.461571   0.043286
    10  C   -0.419781   0.052529
    11  C   -0.391354   0.001353
    12  N   -0.012603   0.014539
    13  C    0.285634  -0.024578
    14  C    0.020239  -0.029513
    15  C   -0.089050   0.014336
    16  C    0.294190  -0.050354
    17  C   -0.395342  -0.000490
    18  C   -0.413670   0.002630
    19  C   -0.189351  -0.001399
    20  C    0.296645  -0.000246
    21  O   -0.390546   0.000002
    22  O   -0.270177   0.000028
    23  N    0.038742   0.038235
    24  C    0.283538  -0.055516
    25  C   -0.180987   0.010309
    26  C    0.086897  -0.019704
    27  C    0.190831  -0.039827
    28  C   -0.354066  -0.000722
    29  C   -0.217998   0.019706
    30  C   -0.303827  -0.028575
    31  N   -0.029748   0.009239
    32  C    0.272467  -0.057644
    33  C   -0.056874   0.103544
    34  C   -0.078888  -0.002274
    35  C    0.265048  -0.020795
    36  C   -0.352649  -0.000129
    37  C   -0.002128   0.062419
    38  C   -0.319439   1.006829
    39  N    0.011396   0.004826
    40  C    0.240052  -0.019764
    41  C   -0.082545  -0.006448
    42  C   -0.036456   0.002278
    43  C    0.302305  -0.028585
    44  C   -0.388700   0.000420
    45  C   -0.323529   0.000022
    46  C   -0.156415  -0.000158
    47  C    0.305077  -0.000018
    48  O   -0.342136  -0.000070
    49  O   -0.373703  -0.000008
    50  C    0.113569  -0.000222
    51  O    0.013379  -0.000131
    52  H    0.145666   0.000000
    53  H    0.154906  -0.000002
    54  H    0.142916  -0.000003
    55  H    0.256977  -0.000002
    56  H    0.200320   0.000156
    57  H    0.130982   0.000129
    58  H    0.148270  -0.000024
    59  H    0.105940   0.000009
    60  H    0.114071   0.000003
    61  H    0.139898   0.000011
    62  H    0.358730   0.000000
    63  H    0.157827  -0.000503
    64  H    0.136906  -0.000124
    65  H    0.154843  -0.000078
    66  H    0.092443   0.000459
    67  H    0.172542   0.046514
    68  H    0.190467  -0.029609
    69  H    0.192994  -0.028659
    70  H    0.172101   0.005407
    71  H    0.153852   0.003800
    72  H    0.141434  -0.002359
    73  H    0.106308  -0.001857
    74  H    0.133014  -0.002123
    75  H    0.154440   0.001546
    76  H    0.162102   0.001472
    77  H    0.134536   0.000079
    78  H    0.153587   0.000243
    79  H    0.155416   0.000049
    80  H    0.128073  -0.001811
    81  H    0.079916  -0.000734
    82  H    0.147425   0.000118
    83  H    0.166258   0.000274
    84  H    0.139360   0.000133
    85  H    0.151356  -0.000140
    86  H    0.152525  -0.000915
    87  H    0.153006  -0.000229
    88  H    0.130130   0.000078
    89  H    0.333964   0.000018
 Sum of Mulliken charges =   1.00000   1.00000

 Dipole moment (field-independent basis, Debye):
    X=             -5.1523    Y=              3.0758    Z=             -0.5709  Tot=              6.0276
 Quadrupole moment (field-independent basis, Debye-Ang):
   XX=           -212.6397   YY=           -211.0462   ZZ=           -269.3188
   XY=            -43.4732   XZ=            -20.5741   YZ=             15.2255

 Summary of Natural Population Analysis:

                                       Natural Population
                Natural  -----------------------------------------------
    Atom  No    Charge         Core      Valence    Rydberg      Total
 -----------------------------------------------------------------------
      C    1   -0.32049      0.99969     2.31758    0.00321     3.32049
      C    2    0.06359      0.99959     1.92913    0.00770     2.93641
      N    3   -0.24140      0.99970     2.73201    0.00969     3.74140
      C    4   -0.04561      0.99949     2.03633    0.00980     3.04561
      C    5    0.10206      0.99967     1.88885    0.00942     2.89794
      N    6   -0.16964      0.99966     2.64619    0.02379     3.66964
     Fe    7   -0.17864      8.99220     4.16349    0.02295    13.17864
      C    8   -0.10623      0.99951     2.09808    0.00864     3.10623
      C    9   -0.08416      0.99952     2.07714    0.00750     3.08416
      C   10   -0.08798      0.99948     2.08050    0.00800     3.08798
      C   11   -0.12947      0.99944     2.12133    0.00869     3.12947
      N   12   -0.17055      0.99968     2.64837    0.02250     3.67055
      C   13    0.06936      0.99953     1.92058    0.01054     2.93064
      C   14   -0.01815      0.99944     2.00898    0.00973     3.01815
      C   15   -0.01155      0.99930     2.00317    0.00908     3.01155
      C   16    0.06118      0.99943     1.92929    0.01010     2.93882
      C   17   -0.31625      0.99970     2.31291    0.00364     3.31625
      C   18   -0.20800      0.99967     2.20126    0.00707     3.20800
      C   19   -0.25684      0.99962     2.24938    0.00784     3.25684
      C   20    0.38353      0.99971     1.59967    0.01708     2.61647
      O   21   -0.29796      0.99989     3.28638    0.01168     4.29796
      O   22   -0.31446      0.99981     3.29924    0.01541     4.31446
      N   23   -0.14450      0.99966     2.62280    0.02204     3.64450
      C   24    0.06707      0.99950     1.92393    0.00949     2.93293
      C   25   -0.00121      0.99932     1.99273    0.00916     3.00121
      C   26   -0.03767      0.99936     2.02763    0.01069     3.03767
      C   27    0.07346      0.99952     1.91687    0.01015     2.92654
      C   28   -0.31834      0.99969     2.31503    0.00362     3.31834
      C   29   -0.09963      0.99961     2.09069    0.00933     3.09963
      C   30   -0.19384      0.99965     2.18575    0.00844     3.19384
      N   31   -0.15162      0.99969     2.63099    0.02094     3.65162
      C   32    0.05325      0.99951     1.93770    0.00954     2.94675
      C   33    0.05532      0.99937     1.93655    0.00876     2.94468
      C   34   -0.04166      0.99937     2.03198    0.01031     3.04166
      C   35    0.08636      0.99949     1.90428    0.00987     2.91364
      C   36   -0.31320      0.99969     2.30759    0.00592     3.31320
      C   37    0.02737      0.99961     1.96498    0.00804     2.97263
      C   38    0.30370      0.99963     1.68873    0.00794     2.69630
      N   39   -0.16525      0.99966     2.64304    0.02256     3.66525
      C   40    0.08591      0.99952     1.90452    0.01005     2.91409
      C   41   -0.00399      0.99937     1.99622    0.00839     3.00399
      C   42   -0.01435      0.99933     2.00523    0.00978     3.01435
      C   43    0.07687      0.99951     1.91374    0.00988     2.92313
      C   44   -0.31978      0.99970     2.31646    0.00362     3.31978
      C   45   -0.20106      0.99966     2.19516    0.00624     3.20106
      C   46   -0.25143      0.99960     2.24316    0.00866     3.25143
      C   47    0.38023      0.99969     1.60312    0.01696     2.61977
      O   48   -0.28023      0.99989     3.26874    0.01159     4.28023
      O   49   -0.34182      0.99983     3.32926    0.01273     4.34182
      C   50    0.47202      0.99942     1.50185    0.02670     2.52798
      O   51   -0.20976      0.99985     3.19138    0.01852     4.20976
      H   52    0.11747      0.00000     0.38203    0.00050     0.38253
      H   53    0.11520      0.00000     0.38413    0.00067     0.38480
      H   54    0.11325      0.00000     0.38609    0.00065     0.38675
      H   55    0.21682      0.00000     0.28227    0.00091     0.28318
      H   56    0.11346      0.00000     0.38544    0.00109     0.38654
      H   57    0.10833      0.00000     0.39097    0.00070     0.39167
      H   58    0.11876      0.00000     0.38039    0.00085     0.38124
      H   59    0.10318      0.00000     0.39601    0.00081     0.39682
      H   60    0.10788      0.00000     0.39143    0.00069     0.39212
      H   61    0.12120      0.00000     0.37821    0.00059     0.37880
      H   62    0.25987      0.00000     0.23895    0.00118     0.24013
      H   63    0.11530      0.00000     0.38397    0.00073     0.38470
      H   64    0.11030      0.00000     0.38905    0.00065     0.38970
      H   65    0.11778      0.00000     0.38150    0.00071     0.38222
      H   66    0.10728      0.00000     0.39137    0.00135     0.39272
      H   67    0.13995      0.00000     0.35943    0.00062     0.36005
      H   68    0.10668      0.00000     0.39263    0.00069     0.39332
      H   69    0.10544      0.00000     0.39385    0.00071     0.39456
      H   70    0.12316      0.00000     0.37626    0.00058     0.37684
      H   71    0.11968      0.00000     0.37986    0.00047     0.38032
      H   72    0.11438      0.00000     0.38511    0.00051     0.38562
      H   73    0.10983      0.00000     0.38894    0.00124     0.39017
      H   74    0.10590      0.00000     0.39322    0.00088     0.39410
      H   75    0.10556      0.00000     0.39373    0.00071     0.39444
      H   76    0.10261      0.00000     0.39651    0.00088     0.39739
      H   77    0.11105      0.00000     0.38831    0.00064     0.38895
      H   78    0.11577      0.00000     0.38349    0.00074     0.38423
      H   79    0.12034      0.00000     0.37896    0.00070     0.37966
      H   80    0.11104      0.00000     0.38759    0.00136     0.38896
      H   81    0.10070      0.00000     0.39737    0.00193     0.39930
      H   82    0.11318      0.00000     0.38608    0.00074     0.38682
      H   83    0.11622      0.00000     0.38302    0.00076     0.38378
      H   84    0.11147      0.00000     0.38793    0.00060     0.38853
      H   85    0.09893      0.00000     0.40026    0.00081     0.40107
      H   86    0.12008      0.00000     0.37906    0.00085     0.37992
      H   87    0.11718      0.00000     0.38219    0.00063     0.38282
      H   88    0.12079      0.00000     0.37851    0.00071     0.37921
      H   89    0.24942      0.00000     0.24949    0.00108     0.25058
 =======================================================================
   * Total *    1.00000     58.97147   129.42360    0.60493   189.00000

 Normal termination of Gaussian 16 at Fri Sep  9 10:51:41 2022.
