 Gaussian 16, Revision A.03,

 ---------------------------------------------------------------------
 # polar def2tzvp empiricaldispersion=gd3bj int=grid=ultrafine pbe1pbe
 ---------------------------------------------------------------------

 ---------
 1a6g_II_S
 ---------
 Symbolic Z-matrix:
 Charge =  0 Multiplicity = 1

 SCF Done:  E(RPBE1PBE) =  -3475.47172590     A.U. after   20 cycles

  Exact polarizability: 812.291 -65.365 858.615  21.920  71.499 389.523
 Approx polarizability:1425.137-165.1721704.180  32.705 187.219 637.248

 Normal termination of Gaussian 16 at Fri Sep  2 17:24:51 2022.
 Gaussian 16:  ES64L-G16RevA.03 25-Dec-2016

 ----------------------------------------------------------------------
 # PBE1PBE/def2TZVP empiricaldispersion=GD3BJ int=(grid=ultrafine) geom
 =check guess=read pop=nbo scf=qc
 ----------------------------------------------------------------------

 -------------
 1a6g_II_S_nbo
 -------------
 Structure from the checkpoint file:  "1a6g_II_S.chk"
 Charge =  0 Multiplicity = 1

                         Standard orientation:
 ---------------------------------------------------------------------
 Center     Atomic      Atomic             Coordinates (Angstroms)
 Number     Number       Type             X           Y           Z
 ---------------------------------------------------------------------
      1          6           0       -1.668641   -0.145279    5.292812
      2          6           0       -1.254598   -0.464156    3.872057
      3          7           0       -0.483759   -1.549544    3.561379
      4          6           0       -1.440696    0.196128    2.683998
      5          6           0       -0.249098   -1.484741    2.210824
      6          7           0       -0.821448   -0.449671    1.667667
      7         26           0       -0.723984    0.098720   -0.317666
      8          6           0        2.602199   -0.452503   -0.308600
      9          6           0       -1.288254   -3.183982   -1.130162
     10          6           0       -4.050075    0.662815   -0.381545
     11          6           0       -0.167747    3.346614    0.413137
     12          7           0        0.427754   -1.492778   -0.681890
     13          6           0        1.785478   -1.552720   -0.571465
     14          6           0        2.242471   -2.903006   -0.832461
     15          6           0        1.127798   -3.637650   -1.110093
     16          6           0        0.058414   -2.804100   -0.985911
     17          6           0        1.080326   -5.157057   -1.413901
     18          6           0        3.674702   -3.431078   -0.700846
     19          6           0        3.855934   -4.280191    0.587903
     20          6           0        3.536533   -3.512247    1.829572
     21          8           0        2.595994   -3.898986    2.569866
     22          8           0        4.222159   -2.484528    2.078858
     23          7           0       -2.378579   -0.999116   -0.668528
     24          6           0       -2.422961   -2.382987   -1.014722
     25          6           0       -3.770152   -2.797530   -1.176984
     26          6           0       -4.526313   -1.733658   -0.967353
     27          6           0       -3.654506   -0.603317   -0.652072
     28          6           0       -4.190256   -4.236376   -1.483579
     29          6           0       -6.026696   -1.610473   -1.111223
     30          6           0       -6.680165   -2.342620   -2.045838
     31          7           0       -1.853023    1.642466    0.001596
     32          6           0       -3.276022    1.798386   -0.142558
     33          6           0       -3.726764    3.140054   -0.038615
     34          6           0       -2.619367    3.899004    0.177573
     35          6           0       -1.459521    3.003438    0.203034
     36          6           0       -5.187114    3.592041   -0.158132
     37          6           0       -2.475848    5.397954    0.243669
     38          6           0       -3.575721    6.187318    0.182421
     39          7           0        0.872470    1.209764    0.064770
     40          6           0        0.940568    2.555549    0.357252
     41          6           0        2.315034    3.001552    0.463842
     42          6           0        3.072133    1.942310    0.204909
     43          6           0        2.195439    0.846664   -0.012707
     44          6           0        2.718319    4.445503    0.748162
     45          6           0        4.595561    1.896357    0.035348
     46          6           0        5.017935    2.207241   -1.431061
     47          6           0        6.472441    2.383974   -1.657329
     48          8           0        6.986048    3.473400   -1.294814
     49          8           0        7.048103    1.379372   -2.235236
     50          6           0       -0.707283    0.741667   -2.022664
     51          8           0       -0.696536    1.279695   -2.973117
     52          1           0       -1.836314    0.907229    5.387752
     53          1           0       -2.569273   -0.672632    5.528737
     54          1           0       -0.892990   -0.445045    5.966167
     55          1           0       -0.155767   -2.251803    4.193244
     56          1           0        0.334506   -2.199547    1.669198
     57          1           0       -2.000820    1.101266    2.574979
     58          1           0        5.041394    2.617982    0.687567
     59          1           0        4.947155    0.921234    0.300706
     60          1           0        4.678611    1.405425   -2.053034
     61          1           0        4.521209    3.103767   -1.738317
     62          1           0        7.554201    1.513922   -3.039823
     63          1           0        2.724768    5.000719   -0.166493
     64          1           0        2.017339    4.884539    1.426967
     65          1           0        3.695637    4.463766    1.183381
     66          1           0        0.006582    4.374245    0.654974
     67          1           0       -1.505558    5.838816    0.338950
     68          1           0       -3.864893    6.630747   -0.747445
     69          1           0       -4.154954    6.367134    1.063928
     70          1           0       -5.452571    3.671056   -1.191665
     71          1           0       -5.822415    2.875707    0.319527
     72          1           0       -5.305408    4.544762    0.314339
     73          1           0       -5.108706    0.814244   -0.345925
     74          1           0       -6.572323   -0.945247   -0.475090
     75          1           0       -7.646290   -2.747955   -1.828566
     76          1           0       -6.229988   -2.515355   -3.001036
     77          1           0       -3.495847   -4.671813   -2.171395
     78          1           0       -4.199738   -4.805871   -0.577772
     79          1           0       -5.168989   -4.237723   -1.915991
     80          1           0       -1.463053   -4.215074   -1.356426
     81          1           0        3.657692   -0.625715   -0.337457
     82          1           0        1.925238   -5.427758   -2.012018
     83          1           0        1.103234   -5.705339   -0.495335
     84          1           0        0.179738   -5.386813   -1.944046
     85          1           0        4.350770   -2.602274   -0.670571
     86          1           0        3.902894   -4.036883   -1.552802
     87          1           0        4.870503   -4.616001    0.640649
     88          1           0        3.211609   -5.132707    0.533493
     89          1           0        4.715457   -2.054597    1.376422
 ---------------------------------------------------------------------

 SCF Done:  E(RPBE1PBE) =  -3475.47172590     a.u. after    1 cycles

 The electronic state is 1-A.
 Alpha  occ. eigenvalues -- -256.33967 -30.11308 -25.94193 -25.93667 -25.93636
 Alpha  occ. eigenvalues --  -19.27518 -19.27208 -19.26748 -19.19302 -19.18254
 Alpha  occ. eigenvalues --  -14.44123 -14.39021 -14.38691 -14.37814 -14.37606
 Alpha  occ. eigenvalues --  -14.37467 -10.36249 -10.35832 -10.30726 -10.27373
 Alpha  occ. eigenvalues --  -10.25951 -10.25340 -10.25155 -10.24921 -10.24874
 Alpha  occ. eigenvalues --  -10.24817 -10.24691 -10.24495 -10.24196 -10.24066
 Alpha  occ. eigenvalues --  -10.24008 -10.23951 -10.23903 -10.23650 -10.23178
 Alpha  occ. eigenvalues --  -10.23142 -10.23034 -10.22915 -10.22876 -10.22637
 Alpha  occ. eigenvalues --  -10.22567 -10.22412 -10.22361 -10.22296 -10.22107
 Alpha  occ. eigenvalues --  -10.22067 -10.22049 -10.22046 -10.21465 -10.21300
 Alpha  occ. eigenvalues --  -10.21227 -10.21098 -10.21092 -10.20897 -10.20779
 Alpha  occ. eigenvalues --   -3.45315  -2.21547  -2.20435  -2.20420  -1.18490
 Alpha  occ. eigenvalues --   -1.17315  -1.15622  -1.05532  -1.03500  -1.02886
 Alpha  occ. eigenvalues --   -0.98373  -0.97522  -0.97138  -0.95285  -0.91642
 Alpha  occ. eigenvalues --   -0.84567  -0.84310  -0.83724  -0.83018  -0.82569
 Alpha  occ. eigenvalues --   -0.81452  -0.81129  -0.80089  -0.79882  -0.79052
 Alpha  occ. eigenvalues --   -0.77583  -0.76710  -0.75572  -0.74421  -0.73274
 Alpha  occ. eigenvalues --   -0.72359  -0.72284  -0.71711  -0.70460  -0.70322
 Alpha  occ. eigenvalues --   -0.69883  -0.67932  -0.66244  -0.65916  -0.65323
 Alpha  occ. eigenvalues --   -0.64589  -0.61421  -0.61034  -0.60557  -0.59901
 Alpha  occ. eigenvalues --   -0.57538  -0.57357  -0.56974  -0.56096  -0.55526
 Alpha  occ. eigenvalues --   -0.55049  -0.54524  -0.54192  -0.52722  -0.52384
 Alpha  occ. eigenvalues --   -0.52133  -0.51531  -0.50955  -0.50581  -0.49876
 Alpha  occ. eigenvalues --   -0.49185  -0.49056  -0.48838  -0.48455  -0.48261
 Alpha  occ. eigenvalues --   -0.48111  -0.47762  -0.47417  -0.47017  -0.46154
 Alpha  occ. eigenvalues --   -0.45911  -0.45700  -0.45598  -0.45017  -0.44694
 Alpha  occ. eigenvalues --   -0.44443  -0.44169  -0.43910  -0.43781  -0.43580
 Alpha  occ. eigenvalues --   -0.43439  -0.43271  -0.43152  -0.42816  -0.42703
 Alpha  occ. eigenvalues --   -0.42570  -0.42289  -0.42233  -0.41921  -0.41449
 Alpha  occ. eigenvalues --   -0.41279  -0.41199  -0.40568  -0.40543  -0.40177
 Alpha  occ. eigenvalues --   -0.39644  -0.39564  -0.39178  -0.38913  -0.38764
 Alpha  occ. eigenvalues --   -0.38437  -0.38251  -0.38106  -0.37805  -0.37637
 Alpha  occ. eigenvalues --   -0.37044  -0.36746  -0.36396  -0.36354  -0.35694
 Alpha  occ. eigenvalues --   -0.35343  -0.34468  -0.33735  -0.33381  -0.33121
 Alpha  occ. eigenvalues --   -0.32995  -0.32618  -0.32047  -0.30770  -0.29138
 Alpha  occ. eigenvalues --   -0.28999  -0.28625  -0.28145  -0.27915  -0.27666
 Alpha  occ. eigenvalues --   -0.25974  -0.25269  -0.23676  -0.22979  -0.22437
 Alpha  occ. eigenvalues --   -0.21217  -0.20559  -0.19656  -0.19090  -0.16762
 Alpha virt. eigenvalues --   -0.09782  -0.07430  -0.06137  -0.02795  -0.02272
 Alpha virt. eigenvalues --   -0.00452   0.00189   0.00541   0.01516   0.02326
 Alpha virt. eigenvalues --    0.02836   0.03121   0.03530   0.03641   0.04063

 Mulliken charges:
               1
     1  C   -0.385856
     2  C    0.152162
     3  N   -0.223431
     4  C   -0.198987
     5  C   -0.001754
     6  N    0.065678
     7  Fe  -0.354947
     8  C   -0.477213
     9  C   -0.459701
    10  C   -0.435131
    11  C   -0.404711
    12  N   -0.019415
    13  C    0.260201
    14  C    0.009483
    15  C   -0.074405
    16  C    0.264203
    17  C   -0.412756
    18  C   -0.422660
    19  C   -0.175483
    20  C    0.298919
    21  O   -0.396957
    22  O   -0.275168
    23  N    0.033236
    24  C    0.250696
    25  C   -0.170906
    26  C    0.083981
    27  C    0.190300
    28  C   -0.366944
    29  C   -0.221949
    30  C   -0.319986
    31  N   -0.053959
    32  C    0.271621
    33  C   -0.095419
    34  C   -0.037359
    35  C    0.238771
    36  C   -0.362957
    37  C   -0.119163
    38  C   -0.408811
    39  N    0.006432
    40  C    0.248443
    41  C   -0.081421
    42  C   -0.040006
    43  C    0.281826
    44  C   -0.396815
    45  C   -0.335584
    46  C   -0.152383
    47  C    0.302395
    48  O   -0.353793
    49  O   -0.373901
    50  C    0.113386
    51  O   -0.009377
    52  H    0.146519
    53  H    0.145150
    54  H    0.130825
    55  H    0.244814
    56  H    0.200814
    57  H    0.142653
    58  H    0.136077
    59  H    0.101174
    60  H    0.113826
    61  H    0.137957
    62  H    0.350099
    63  H    0.146194
    64  H    0.136087
    65  H    0.138446
    66  H    0.084601
    67  H    0.131147
    68  H    0.143392
    69  H    0.152483
    70  H    0.139263
    71  H    0.134480
    72  H    0.141483
    73  H    0.089289
    74  H    0.121455
    75  H    0.132621
    76  H    0.149141
    77  H    0.126711
    78  H    0.137788
    79  H    0.144197
    80  H    0.105989
    81  H    0.058468
    82  H    0.132731
    83  H    0.152533
    84  H    0.133768
    85  H    0.143416
    86  H    0.136223
    87  H    0.131995
    88  H    0.120233
    89  H    0.333529
 Sum of Mulliken charges =  -0.00000

 Dipole moment (field-independent basis, Debye):
    X=              1.5643    Y=             -3.4844    Z=              0.2948  Tot=              3.8308
 Quadrupole moment (field-independent basis, Debye-Ang):
   XX=           -283.3004   YY=           -300.7685   ZZ=           -285.4467
   XY=            -19.4050   XZ=            -23.6996   YZ=              9.6915

 Summary of Natural Population Analysis:

                                       Natural Population
                Natural  -----------------------------------------------
    Atom  No    Charge         Core      Valence    Rydberg      Total
 -----------------------------------------------------------------------
      C    1   -0.63892      1.99939     4.63304    0.00649     6.63892
      C    2    0.10937      1.99917     3.87563    0.01583     5.89063
      N    3   -0.49058      1.99941     5.47167    0.01950     7.49058
      C    4   -0.07958      1.99897     4.06090    0.01971     6.07958
      C    5    0.20428      1.99935     3.77739    0.01898     5.79572
      N    6   -0.33010      1.99934     5.28268    0.04808     7.33010
     Fe    7   -0.36618     17.98422     8.33626    0.04570    26.36618
      C    8   -0.22915      1.99902     4.21258    0.01755     6.22915
      C    9   -0.20577      1.99906     4.19145    0.01526     6.20577
      C   10   -0.23258      1.99896     4.21722    0.01641     6.23258
      C   11   -0.24660      1.99888     4.22995    0.01777     6.24660
      N   12   -0.35025      1.99936     5.30605    0.04484     7.35025
      C   13    0.13325      1.99906     3.84640    0.02129     5.86675
      C   14   -0.04807      1.99887     4.02927    0.01994     6.04807
      C   15   -0.03748      1.99860     4.02049    0.01839     6.03748
      C   16    0.11798      1.99885     3.86268    0.02049     5.88202
      C   17   -0.63173      1.99940     4.62493    0.00740     6.63173
      C   18   -0.41186      1.99934     4.39794    0.01458     6.41186
      C   19   -0.51374      1.99925     4.49881    0.01568     6.51374
      C   20    0.77138      1.99943     3.19470    0.03449     5.22862
      O   21   -0.60134      1.99979     6.57828    0.02326     8.60134
      O   22   -0.63254      1.99962     6.60225    0.03067     8.63254
      N   23   -0.31831      1.99932     5.27546    0.04352     7.31831
      C   24    0.13593      1.99901     3.84586    0.01921     5.86407
      C   25   -0.00975      1.99863     3.99242    0.01871     6.00975
      C   26   -0.08357      1.99871     4.06305    0.02182     6.08357
      C   27    0.16151      1.99904     3.81917    0.02029     5.83849
      C   28   -0.63584      1.99939     4.62912    0.00733     6.63584
      C   29   -0.19403      1.99923     4.17569    0.01912     6.19403
      C   30   -0.40663      1.99929     4.38984    0.01749     6.40663
      N   31   -0.34278      1.99937     5.30219    0.04122     7.34278
      C   32    0.14815      1.99901     3.83366    0.01918     5.85185
      C   33   -0.01666      1.99874     3.99937    0.01855     6.01666
      C   34   -0.08702      1.99880     4.06674    0.02148     6.08702
      C   35    0.16675      1.99899     3.81441    0.01985     5.83325
      C   36   -0.64176      1.99938     4.63452    0.00786     6.64176
      C   37   -0.16833      1.99921     4.14702    0.02209     6.16833
      C   38   -0.45079      1.99931     4.42666    0.02483     6.45079
      N   39   -0.32639      1.99932     5.28246    0.04461     7.32639
      C   40    0.15514      1.99903     3.82571    0.02012     5.84486
      C   41   -0.01176      1.99873     3.99584    0.01718     6.01176
      C   42   -0.04807      1.99865     4.02962    0.01980     6.04807
      C   43    0.14550      1.99902     3.83550    0.01999     5.85450
      C   44   -0.63803      1.99940     4.63135    0.00728     6.63803
      C   45   -0.39783      1.99933     4.38558    0.01291     6.39783
      C   46   -0.50677      1.99921     4.48992    0.01764     6.50677
      C   47    0.76432      1.99939     3.20205    0.03424     5.23568
      O   48   -0.57356      1.99979     6.55061    0.02316     8.57356
      O   49   -0.68569      1.99967     6.66042    0.02560     8.68569
      C   50    0.95118      1.99886     2.99608    0.05388     5.04882
      O   51   -0.44197      1.99971     6.40527    0.03700     8.44197
      H   52    0.23330      0.00000     0.76567    0.00102     0.76670
      H   53    0.22271      0.00000     0.77583    0.00146     0.77729
      H   54    0.21798      0.00000     0.78061    0.00141     0.78202
      H   55    0.42534      0.00000     0.57277    0.00189     0.57466
      H   56    0.22929      0.00000     0.76853    0.00218     0.77071
      H   57    0.22356      0.00000     0.77504    0.00140     0.77644
      H   58    0.22904      0.00000     0.76922    0.00174     0.77096
      H   59    0.20289      0.00000     0.79543    0.00168     0.79711
      H   60    0.21729      0.00000     0.78132    0.00139     0.78271
      H   61    0.24291      0.00000     0.75588    0.00121     0.75709
      H   62    0.51395      0.00000     0.48349    0.00255     0.48605
      H   63    0.22410      0.00000     0.77431    0.00158     0.77590
      H   64    0.22029      0.00000     0.77836    0.00135     0.77971
      H   65    0.22337      0.00000     0.77512    0.00151     0.77663
      H   66    0.21047      0.00000     0.78630    0.00322     0.78953
      H   67    0.20834      0.00000     0.78928    0.00237     0.79166
      H   68    0.20549      0.00000     0.79201    0.00249     0.79451
      H   69    0.20272      0.00000     0.79484    0.00245     0.79728
      H   70    0.22558      0.00000     0.77253    0.00189     0.77442
      H   71    0.22340      0.00000     0.77533    0.00127     0.77660
      H   72    0.23702      0.00000     0.76082    0.00216     0.76298
      H   73    0.21007      0.00000     0.78729    0.00264     0.78993
      H   74    0.20627      0.00000     0.79189    0.00185     0.79373
      H   75    0.19885      0.00000     0.79958    0.00158     0.80115
      H   76    0.20014      0.00000     0.79798    0.00187     0.79986
      H   77    0.21661      0.00000     0.78201    0.00138     0.78339
      H   78    0.22169      0.00000     0.77668    0.00163     0.77831
      H   79    0.23359      0.00000     0.76489    0.00152     0.76641
      H   80    0.20981      0.00000     0.78740    0.00279     0.79019
      H   81    0.18873      0.00000     0.80732    0.00394     0.81127
      H   82    0.21559      0.00000     0.78281    0.00160     0.78441
      H   83    0.22255      0.00000     0.77575    0.00169     0.77745
      H   84    0.21935      0.00000     0.77936    0.00129     0.78065
      H   85    0.19436      0.00000     0.80394    0.00170     0.80564
      H   86    0.22947      0.00000     0.76867    0.00187     0.77053
      H   87    0.22259      0.00000     0.77599    0.00141     0.77741
      H   88    0.23857      0.00000     0.75996    0.00147     0.76143
      H   89    0.49996      0.00000     0.49778    0.00226     0.50004
 =======================================================================
   * Total *    0.00000    117.94287   260.81812    1.23901   380.00000

 Normal termination of Gaussian 16 at Fri Sep  2 18:01:05 2022.
