 Gaussian 16, Revision A.03,
 Gaussian 16:  ES64L-G16RevA.03 25-Dec-2016

 ----------------------------------------------------------------------
 # PBE1PBE/def2TZVP empiricaldispersion=GD3BJ scf=maxcycle=999 geom=che
 ck pop=nbo
 ----------------------------------------------------------------------

 ---------
 351c_II_Q
 ---------
 Structure from the checkpoint file:  "351c_II_Q.chk"
 Charge =  0 Multiplicity = 5

                         Standard orientation:
 ---------------------------------------------------------------------
 Center     Atomic      Atomic             Coordinates (Angstroms)
 Number     Number       Type             X           Y           Z
 ---------------------------------------------------------------------
      1          6           0        3.355220   -0.883368    5.019160
      2          6           0        2.335161   -0.535055    3.949218
      3          7           0        1.000325   -0.498289    4.190973
      4          6           0        2.531811   -0.337203    2.591447
      5          6           0        0.370357   -0.268666    3.009108
      6          7           0        1.306606   -0.164826    2.022108
      7          6           0       -0.793115    2.323822   -2.801540
      8          6           0        0.546469    1.589718   -2.981526
      9         16           0        0.598976   -0.064391   -2.259129
     10          6           0       -0.962090   -0.830809   -2.735455
     11          6           0       -2.472595   -0.020912    0.531683
     12          6           0        0.862364   -3.462374    0.029589
     13          6           0        4.221980   -0.087699   -0.764280
     14          6           0        1.010622    3.327315    0.341990
     15          6           0       -1.869601   -1.260294    0.449765
     16          6           0       -2.508043   -2.479553    0.567609
     17          6           0       -1.533808   -3.460682    0.493067
     18          6           0       -0.340683   -2.824911    0.245798
     19          6           0       -1.715440   -4.957978    0.615956
     20          6           0       -3.987309   -2.695827    0.724154
     21          6           0       -4.625826   -2.624295   -0.644109
     22          6           0       -6.124542   -2.840663   -0.541078
     23          8           0       -6.614281   -3.059233    0.561797
     24          8           0       -6.667193   -3.453518   -1.537584
     25          6           0        2.080293   -2.856022   -0.199285
     26          6           0        3.265483   -3.523949   -0.512008
     27          6           0        4.210682   -2.555865   -0.842753
     28          6           0        3.612086   -1.317416   -0.611085
     29          6           0        3.447881   -5.024800   -0.581209
     30          6           0        5.623900   -2.775317   -1.358427
     31          6           0        5.696660   -3.436339   -2.730498
     32          6           0        3.628597    1.144453   -0.551669
     33          6           0        4.286277    2.367009   -0.597596
     34          6           0        3.403427    3.311056   -0.130347
     35          6           0        2.182405    2.694756    0.008720
     36          6           0        5.739150    2.613031   -0.923939
     37          6           0        3.732675    4.737420    0.241809
     38          6           0        4.113903    5.639931   -0.912847
     39          6           0       -0.218464    2.719703    0.462390
     40          6           0       -1.412316    3.389717    0.697436
     41          6           0       -2.422829    2.433764    0.656202
     42          6           0       -1.813822    1.193622    0.495370
     43          6           0       -1.569387    4.884039    0.928578
     44          6           0       -3.910654    2.668551    0.796244
     45          6           0       -4.610684    2.688060   -0.554764
     46          6           0       -6.122585    2.837569   -0.368314
     47          8           0       -6.868833    2.340931   -1.215753
     48          8           0       -6.628734    3.681253    0.516931
     49          7           0       -0.551814   -1.487584    0.263036
     50          7           0        2.306338   -1.514656   -0.249746
     51          7           0        2.341695    1.370514   -0.184024
     52          7           0       -0.462163    1.375212    0.342083
     53         26           0        0.907417   -0.032164    0.076737
     54          1           0       -0.672038    3.119069   -2.095974
     55          1           0       -1.108556    2.725982   -3.741575
     56          1           0       -1.530643    1.637102   -2.441863
     57          1           0        0.748730    1.507578   -4.029020
     58          1           0        1.318001    2.179376   -2.532148
     59          1           0       -1.756316   -0.122866   -2.621776
     60          1           0       -0.908045   -1.145249   -3.756781
     61          1           0       -1.148276   -1.679118   -2.110470
     62          1           0       -4.242544    3.510405   -1.131930
     63          1           0       -4.406872    1.773745   -1.071861
     64          1           0       -4.070507    3.607033    1.284710
     65          1           0       -4.331395    1.887981    1.395067
     66          1           0       -7.569888    3.671279    0.705952
     67          1           0       -7.615568   -3.398666   -1.676059
     68          1           0       -4.436381   -1.662283   -1.072530
     69          1           0       -4.202053   -3.380239   -1.271696
     70          1           0       -4.398339   -1.934867    1.354148
     71          1           0       -4.167353   -3.657991    1.156271
     72          1           0       -2.725622   -5.172955    0.895628
     73          1           0       -1.499090   -5.421816   -0.323697
     74          1           0       -1.050035   -5.337870    1.362828
     75          1           0       -3.537700    0.001153    0.631510
     76          1           0       -1.874488    5.058495    1.939211
     77          1           0       -0.634766    5.372950    0.748717
     78          1           0       -2.309460    5.272439    0.260493
     79          1           0        1.056583    4.380834    0.523331
     80          1           0        6.219973    3.073047   -0.086029
     81          1           0        6.218179    1.681654   -1.142952
     82          1           0        5.809321    3.258812   -1.774200
     83          1           0        5.245734   -0.087617   -1.075452
     84          1           0        2.538260   -5.508350   -0.291952
     85          1           0        3.699606   -5.307734   -1.581950
     86          1           0        4.234729   -5.319391    0.081352
     87          1           0        0.850376   -4.532253    0.040335
     88          1           0        2.868092   -0.944786    5.969862
     89          1           0        3.806759   -1.825539    4.788234
     90          1           0        4.109465   -0.125175    5.053183
     91          1           0        3.473549   -0.322578    2.083690
     92          1           0        0.559044   -0.618699    5.080227
     93          1           0       -0.687687   -0.183201    2.874427
     94          1           0        4.854242   -3.396271   -3.389001
     95          1           0        6.590138   -3.940284   -3.034860
     96          1           0        6.494145   -2.489943   -0.805131
     97          1           0        3.742384    6.642540   -0.953478
     98          1           0        4.754795    5.275037   -1.688094
     99          1           0        3.698838    5.086459    1.252713
 ---------------------------------------------------------------------

 SCF Done:  E(UPBE1PBE) =  -3879.31485432     A.U. after   65 cycles

 Alpha virt. eigenvalues --    1.02396   1.02646   1.03065   1.03267   1.03536
 Alpha virt. eigenvalues --    1.03671   1.04075   1.04243   1.04584   1.05079
 Alpha virt. eigenvalues --    1.05139   1.05423   1.05752   1.05900   1.06249

  Beta  occ. eigenvalues -- -256.38603 -89.01722 -30.12927 -25.96347 -25.96041
  Beta  occ. eigenvalues --  -25.95372 -19.25808 -19.24663 -19.18203 -19.17783
  Beta  occ. eigenvalues --  -14.46546 -14.40053 -14.36729 -14.36241 -14.36146
  Beta  occ. eigenvalues --  -14.35870 -10.35778 -10.34640 -10.29770 -10.27390
  Beta  occ. eigenvalues --  -10.25382 -10.25236 -10.24733 -10.23871 -10.23829
  Beta  occ. eigenvalues --  -10.23781 -10.23409 -10.23279 -10.23272 -10.23261
  Beta  occ. eigenvalues --  -10.23158 -10.23146 -10.22994 -10.22881 -10.22864
  Beta  occ. eigenvalues --  -10.22846 -10.22795 -10.22575 -10.22400 -10.21936
  Beta  occ. eigenvalues --  -10.21638 -10.21439 -10.21347 -10.21338 -10.21119
  Beta  occ. eigenvalues --  -10.20829 -10.20802 -10.20769 -10.20712 -10.20545
  Beta  occ. eigenvalues --  -10.20425 -10.20370 -10.20263 -10.19919 -10.19718
  Beta  occ. eigenvalues --  -10.19157 -10.19007  -7.99708  -5.93377  -5.93044
  Beta  occ. eigenvalues --   -5.92476  -3.43612  -2.19739  -2.19124  -2.16188
  Beta  occ. eigenvalues --   -1.15016  -1.14185  -1.06689  -1.03037  -1.02844
  Beta  occ. eigenvalues --   -0.98709  -0.98138  -0.97184  -0.96634  -0.92260
  Beta  occ. eigenvalues --   -0.84204  -0.83654  -0.83598  -0.83005  -0.81495
  Beta  occ. eigenvalues --   -0.81374  -0.81187  -0.80529  -0.80236  -0.78809
  Beta  occ. eigenvalues --   -0.78365  -0.76112  -0.75984  -0.74902  -0.74422
  Beta  occ. eigenvalues --   -0.73172  -0.73039  -0.72439  -0.70924  -0.70106
  Beta  occ. eigenvalues --   -0.69272  -0.68945  -0.68463  -0.68152  -0.66513
  Beta  occ. eigenvalues --   -0.66058  -0.65476  -0.64769  -0.63238  -0.63062
  Beta  occ. eigenvalues --   -0.61552  -0.61170  -0.59848  -0.58608  -0.57874
  Beta  occ. eigenvalues --   -0.57130  -0.56408  -0.55102  -0.54742  -0.53310
  Beta  occ. eigenvalues --   -0.52472  -0.52068  -0.51918  -0.51332  -0.50876
  Beta  occ. eigenvalues --   -0.50529  -0.49893  -0.49208  -0.48956  -0.48634
  Beta  occ. eigenvalues --   -0.48564  -0.48321  -0.48279  -0.48062  -0.47600
  Beta  occ. eigenvalues --   -0.47330  -0.46252  -0.45535  -0.45391  -0.45158
  Beta  occ. eigenvalues --   -0.44936  -0.44696  -0.44661  -0.44100  -0.44075
  Beta  occ. eigenvalues --   -0.43757  -0.43689  -0.43400  -0.43100  -0.43030
  Beta  occ. eigenvalues --   -0.42932  -0.42797  -0.42335  -0.41981  -0.41862
  Beta  occ. eigenvalues --   -0.41438  -0.41240  -0.41083  -0.40724  -0.40635
  Beta  occ. eigenvalues --   -0.40620  -0.40107  -0.40048  -0.39826  -0.39438
  Beta  occ. eigenvalues --   -0.39143  -0.38965  -0.38820  -0.38608  -0.38125
  Beta  occ. eigenvalues --   -0.37944  -0.37808  -0.37691  -0.37429  -0.36867
  Beta  occ. eigenvalues --   -0.36732  -0.36498  -0.36381  -0.35962  -0.35635
  Beta  occ. eigenvalues --   -0.35520  -0.35143  -0.34717  -0.34555  -0.33358
  Beta  occ. eigenvalues --   -0.33005  -0.32759  -0.32281  -0.32176  -0.32003
  Beta  occ. eigenvalues --   -0.30730  -0.30195  -0.28198  -0.28092  -0.27806
  Beta  occ. eigenvalues --   -0.27050  -0.25791  -0.25161  -0.24781  -0.24605
  Beta  occ. eigenvalues --   -0.24082  -0.22615  -0.22588  -0.21952  -0.21261
  Beta  occ. eigenvalues --   -0.18999  -0.18092
  Beta virt. eigenvalues --   -0.08628  -0.07157  -0.04214  -0.03952  -0.03640
  Beta virt. eigenvalues --   -0.02899  -0.01572  -0.00241  -0.00095   0.00762
  Beta virt. eigenvalues --    0.01006   0.02045   0.02420   0.03011   0.03750

 Mulliken charges and spin densities:
               1          2
     1  C   -0.358524   0.001424
     2  C    0.119968   0.001979
     3  N   -0.206659   0.003313
     4  C   -0.177597   0.005336
     5  C   -0.003142   0.017651
     6  N    0.051991   0.037559
     7  C   -0.349448   0.001358
     8  C   -0.138161   0.003157
     9  S   -0.016941   0.080288
    10  C   -0.353873   0.002945
    11  C   -0.615245  -0.116779
    12  C   -0.577306   0.296406
    13  C   -0.502361  -0.108630
    14  C   -0.597736   0.288254
    15  C    0.189236   0.124319
    16  C    0.120907  -0.045681
    17  C   -0.068492   0.106811
    18  C    0.237330  -0.056723
    19  C   -0.389931  -0.009977
    20  C   -0.364165   0.000466
    21  C   -0.202598   0.000729
    22  C    0.288288  -0.000072
    23  O   -0.342695  -0.000061
    24  O   -0.360743  -0.000080
    25  C    0.320329  -0.047428
    26  C   -0.055583   0.123579
    27  C   -0.039062  -0.042750
    28  C    0.231173   0.119814
    29  C   -0.342247  -0.009042
    30  C   -0.265773  -0.000162
    31  C   -0.307225   0.004366
    32  C    0.306970   0.123142
    33  C   -0.044177  -0.063876
    34  C    0.024910   0.167908
    35  C    0.208778  -0.060045
    36  C   -0.361582   0.001271
    37  C   -0.268351  -0.473144
    38  C   -0.290123   0.510196
    39  C    0.319870  -0.058583
    40  C   -0.075382   0.126590
    41  C    0.130313  -0.042664
    42  C    0.166216   0.128312
    43  C   -0.407924  -0.009095
    44  C   -0.394335  -0.000103
    45  C   -0.133373  -0.000325
    46  C    0.259409   0.000250
    47  O   -0.348207   0.000052
    48  O   -0.373503  -0.000040
    49  N   -0.062596  -0.021706
    50  N   -0.012789  -0.047041
    51  N    0.014037  -0.021628
    52  N    0.087856  -0.040492
    53  Fe  -0.260825   3.015745
    54  H    0.132893  -0.000433
    55  H    0.122320   0.000358
    56  H    0.088522   0.000555
    57  H    0.129775   0.003368
    58  H    0.146593   0.000509
    59  H    0.123615   0.000164
    60  H    0.150457   0.003109
    61  H    0.166626   0.000268
    62  H    0.131674  -0.000131
    63  H    0.135341   0.000343
    64  H    0.136358  -0.000439
    65  H    0.126600  -0.000802
    66  H    0.341700   0.000042
    67  H    0.337751   0.000088
    68  H    0.130158   0.000004
    69  H    0.141051  -0.000108
    70  H    0.121911  -0.000637
    71  H    0.126464  -0.000560
    72  H    0.123947   0.000266
    73  H    0.134644   0.005835
    74  H    0.134785   0.005299
    75  H    0.120949   0.004614
    76  H    0.139042   0.004511
    77  H    0.127718   0.000760
    78  H    0.128454   0.002661
    79  H    0.096452  -0.015846
    80  H    0.134151  -0.000833
    81  H    0.121022  -0.000006
    82  H    0.124012  -0.000949
    83  H    0.091230   0.004245
    84  H    0.115852   0.000209
    85  H    0.132395   0.005172
    86  H    0.124082   0.003039
    87  H    0.103095  -0.016251
    88  H    0.115937   0.000171
    89  H    0.151830  -0.000029
    90  H    0.149720  -0.000016
    91  H    0.165793   0.001071
    92  H    0.238414   0.001749
    93  H    0.185715  -0.000083
    94  H    0.151827  -0.000167
    95  H    0.132506  -0.000573
    96  H    0.137073  -0.000309
    97  H    0.138635  -0.026610
    98  H    0.136251  -0.026507
    99  H    0.145758   0.025787
 Sum of Mulliken charges =  -0.00000   4.00000

 Dipole moment (field-independent basis, Debye):
    X=              0.7729    Y=              1.0614    Z=              4.3289  Tot=              4.5236
 Quadrupole moment (field-independent basis, Debye-Ang):
   XX=           -325.9407   YY=           -321.8083   ZZ=           -290.0261
   XY=             -8.9593   XZ=              9.7019   YZ=              3.9816

 Summary of Natural Population Analysis:

                                       Natural Population
                Natural  -----------------------------------------------
    Atom  No    Charge         Core      Valence    Rydberg      Total
 -----------------------------------------------------------------------
      C    1   -0.31849      0.99970     2.31566    0.00313     3.31849
      C    2    0.05600      0.99960     1.93478    0.00962     2.94400
      N    3   -0.23536      0.99969     2.72607    0.00961     3.73536
      C    4   -0.02216      0.99949     2.01382    0.00885     3.02216
      C    5    0.10487      0.99968     1.88523    0.01023     2.89513
      N    6   -0.15439      0.99972     2.63258    0.02209     3.65439
      C    7   -0.31024      0.99972     2.30482    0.00570     3.31024
      C    8   -0.26322      0.99964     2.25458    0.00900     3.26322
      S    9    0.31709      4.99923     2.66411    0.01956     7.68291
      C   10   -0.36861      0.99963     2.36055    0.00843     3.36861
      C   11   -0.14538      0.99949     2.13685    0.00903     3.14538
      C   12   -0.02703      0.99949     2.01928    0.00826     3.02703
      C   13   -0.12819      0.99950     2.12054    0.00815     3.12819
      C   14   -0.03593      0.99948     2.02805    0.00840     3.03593
      C   15    0.08752      0.99945     1.90193    0.01111     2.91248
      C   16   -0.02729      0.99944     2.01802    0.00983     3.02729
      C   17    0.03208      0.99925     1.95696    0.01171     2.96792
      C   18    0.05283      0.99944     1.93614    0.01158     2.94717
      C   19   -0.32191      0.99971     2.31873    0.00347     3.32191
      C   20   -0.20873      0.99967     2.20104    0.00802     3.20873
      C   21   -0.24751      0.99962     2.23926    0.00863     3.24751
      C   22    0.37626      0.99974     1.60600    0.01800     2.62374
      O   23   -0.28998      0.99988     3.27717    0.01292     4.28998
      O   24   -0.33652      0.99984     3.32377    0.01291     4.33652
      C   25    0.06281      0.99946     1.92659    0.01114     2.93719
      C   26    0.04663      0.99944     1.94527    0.00866     2.95337
      C   27   -0.06081      0.99941     2.05041    0.01100     3.06081
      C   28    0.10068      0.99945     1.88901    0.01085     2.89932
      C   29   -0.31851      0.99970     2.31509    0.00372     3.31851
      C   30   -0.09527      0.99972     2.08873    0.00682     3.09527
      C   31   -0.19228      0.99975     2.18746    0.00507     3.19228
      C   32    0.09521      0.99945     1.89413    0.01121     2.90479
      C   33   -0.02211      0.99942     2.01391    0.00877     3.02211
      C   34    0.00714      0.99935     1.98227    0.01124     2.99286
      C   35    0.05957      0.99943     1.92948    0.01152     2.94043
      C   36   -0.31468      0.99970     2.31102    0.00396     3.31468
      C   37   -0.28997      0.99973     2.28271    0.00753     3.28997
      C   38    0.04113      0.99975     1.95430    0.00482     2.95887
      C   39    0.06394      0.99944     1.92503    0.01158     2.93606
      C   40    0.03273      0.99943     1.95923    0.00861     2.96727
      C   41   -0.02385      0.99944     2.01509    0.00932     3.02385
      C   42    0.09354      0.99944     1.89605    0.01096     2.90646
      C   43   -0.31949      0.99970     2.31617    0.00363     3.31949
      C   44   -0.21276      0.99967     2.20642    0.00667     3.21276
      C   45   -0.24215      0.99962     2.23400    0.00854     3.24215
      C   46    0.38165      0.99976     1.60083    0.01775     2.61835
      O   47   -0.29680      0.99988     3.28399    0.01292     4.29680
      O   48   -0.33976      0.99985     3.32854    0.01136     4.33976
      N   49   -0.20947      0.99968     2.68570    0.02408     3.70947
      N   50   -0.21086      0.99969     2.68774    0.02343     3.71086
      N   51   -0.20359      0.99967     2.68084    0.02308     3.70359
      N   52   -0.21249      0.99968     2.69025    0.02256     3.71249
     Fe   53    1.55717      8.99577     2.41605    0.03101    11.44283
      H   54    0.11400      0.00000     0.38528    0.00072     0.38600
      H   55    0.10491      0.00000     0.39453    0.00056     0.39509
      H   56    0.10305      0.00000     0.39565    0.00129     0.39695
      H   57    0.10942      0.00000     0.38988    0.00070     0.39058
      H   58    0.12455      0.00000     0.37468    0.00077     0.37545
      H   59    0.10857      0.00000     0.39059    0.00085     0.39143
      H   60    0.11149      0.00000     0.38795    0.00056     0.38851
      H   61    0.12792      0.00000     0.37156    0.00052     0.37208
      H   62    0.11947      0.00000     0.37983    0.00070     0.38053
      H   63    0.11929      0.00000     0.37996    0.00075     0.38071
      H   64    0.11199      0.00000     0.38698    0.00104     0.38801
      H   65    0.10522      0.00000     0.39364    0.00114     0.39478
      H   66    0.25439      0.00000     0.24410    0.00150     0.24561
      H   67    0.25219      0.00000     0.24638    0.00143     0.24781
      H   68    0.11465      0.00000     0.38463    0.00072     0.38535
      H   69    0.11938      0.00000     0.37989    0.00073     0.38062
      H   70    0.11121      0.00000     0.38772    0.00107     0.38879
      H   71    0.11303      0.00000     0.38622    0.00075     0.38697
      H   72    0.10810      0.00000     0.39115    0.00075     0.39190
      H   73    0.11155      0.00000     0.38767    0.00078     0.38845
      H   74    0.11136      0.00000     0.38787    0.00077     0.38864
      H   75    0.10760      0.00000     0.39128    0.00113     0.39240
      H   76    0.11135      0.00000     0.38790    0.00075     0.38865
      H   77    0.11001      0.00000     0.38939    0.00060     0.38999
      H   78    0.10924      0.00000     0.39001    0.00075     0.39076
      H   79    0.10516      0.00000     0.39344    0.00141     0.39484
      H   80    0.11128      0.00000     0.38780    0.00093     0.38872
      H   81    0.10668      0.00000     0.39273    0.00059     0.39332
      H   82    0.10789      0.00000     0.39122    0.00088     0.39211
      H   83    0.11033      0.00000     0.38832    0.00135     0.38967
      H   84    0.10542      0.00000     0.39400    0.00059     0.39458
      H   85    0.11485      0.00000     0.38438    0.00077     0.38515
      H   86    0.11190      0.00000     0.38734    0.00077     0.38810
      H   87    0.10216      0.00000     0.39647    0.00137     0.39784
      H   88    0.10635      0.00000     0.39305    0.00060     0.39365
      H   89    0.11595      0.00000     0.38344    0.00061     0.38405
      H   90    0.11587      0.00000     0.38354    0.00058     0.38413
      H   91    0.11947      0.00000     0.37974    0.00078     0.38053
      H   92    0.21118      0.00000     0.28801    0.00080     0.28882
      H   93    0.11603      0.00000     0.38310    0.00087     0.38397
      H   94    0.09965      0.00000     0.39958    0.00077     0.40035
      H   95    0.09515      0.00000     0.40409    0.00075     0.40485
      H   96    0.10377      0.00000     0.39527    0.00096     0.39623
      H   97    0.08628      0.00000     0.41285    0.00088     0.41372
      H   98    0.08470      0.00000     0.41421    0.00109     0.41530
      H   99    0.11293      0.00000     0.38613    0.00094     0.38707
 =======================================================================
   * Total *    2.00002     64.97462   136.39571    0.62965   201.99998

 Normal termination of Gaussian 16 at Thu Feb  9 05:19:43 2023.
