 Gaussian 16, Revision A.03,
 Gaussian 16:  ES64L-G16RevA.03 25-Dec-2016

 ----------------------------------------------------------------------
 # PBE1PBE/def2TZVP empiricaldispersion=GD3BJ scf=maxcycle=999 geom=che
 ck pop=nbo
 ----------------------------------------------------------------------

 ----------
 1a6m_III_H
 ----------
 Structure from the checkpoint file:  "1a6m_III_H.chk"
 Charge =  1 Multiplicity = 6

                         Standard orientation:
 ---------------------------------------------------------------------
 Center     Atomic      Atomic             Coordinates (Angstroms)
 Number     Number       Type             X           Y           Z
 ---------------------------------------------------------------------
      1          6           0       -1.593213   -0.088727    5.340081
      2          6           0       -1.210641   -0.419821    3.935053
      3          7           0       -0.413737   -1.487716    3.595814
      4          6           0       -1.441400    0.240916    2.745104
      5          6           0       -0.206834   -1.436510    2.265679
      6          7           0       -0.798295   -0.447423    1.723055
      7         26           0       -0.747246    0.079337   -0.271439
      8          6           0        2.601930   -0.514834   -0.331246
      9          6           0       -1.318362   -3.193250   -1.118821
     10          6           0       -4.102281    0.682462   -0.364866
     11          6           0       -0.153927    3.320524    0.411293
     12          7           0        0.397979   -1.517917   -0.645063
     13          6           0        1.767803   -1.597516   -0.558918
     14          6           0        2.227035   -2.959048   -0.855304
     15          6           0        1.100999   -3.678989   -1.135708
     16          6           0       -0.011415   -2.808795   -0.981001
     17          6           0        1.007680   -5.144774   -1.498132
     18          6           0        3.631511   -3.421230   -0.742408
     19          6           0        3.876494   -4.300848    0.526503
     20          6           0        3.562988   -3.543008    1.781295
     21          8           0        2.640625   -3.900169    2.528952
     22          8           0        4.263272   -2.506631    2.029467
     23          7           0       -2.383006   -1.009151   -0.629741
     24          6           0       -2.423138   -2.366669   -0.946751
     25          6           0       -3.824717   -2.781388   -1.129494
     26          6           0       -4.586260   -1.707341   -0.933535
     27          6           0       -3.684827   -0.626366   -0.615362
     28          6           0       -4.229232   -4.187726   -1.464907
     29          6           0       -6.083968   -1.573614   -1.060357
     30          6           0       -6.746236   -2.258608   -2.024075
     31          7           0       -1.902207    1.689395    0.022240
     32          6           0       -3.278516    1.776034   -0.137126
     33          6           0       -3.714607    3.145839   -0.055265
     34          6           0       -2.600906    3.871333    0.130714
     35          6           0       -1.481495    2.956351    0.205343
     36          6           0       -5.133619    3.599088   -0.218469
     37          6           0       -2.408849    5.345745    0.181566
     38          6           0       -3.357406    6.253141    0.138206
     39          7           0        0.908348    1.187939    0.078615
     40          6           0        0.965306    2.521831    0.330951
     41          6           0        2.311213    2.965755    0.454090
     42          6           0        3.098928    1.877097    0.173174
     43          6           0        2.212654    0.761044   -0.038434
     44          6           0        2.754437    4.382048    0.695309
     45          6           0        4.594303    1.886263    0.023727
     46          6           0        4.993117    2.255747   -1.436329
     47          6           0        6.473491    2.345741   -1.628052
     48          8           0        7.123189    3.373545   -1.332453
     49          8           0        7.030659    1.372688   -2.210218
     50          8           0       -0.637735    0.450599   -2.035766
     51          8           0       -0.843930    1.580306   -2.490925
     52          1           0       -2.019051    1.134071    2.628943
     53          1           0        0.386354   -2.145429    1.726735
     54          1           0       -0.052907   -2.177782    4.223198
     55          1           0       -1.742578    0.966998    5.429717
     56          1           0       -2.498590   -0.599791    5.593077
     57          1           0       -0.812587   -0.396157    6.004167
     58          1           0       -6.623064   -0.937953   -0.389379
     59          1           0       -6.293984   -2.405808   -2.982564
     60          1           0       -7.721382   -2.652245   -1.826492
     61          1           0       -3.531093   -4.603214   -2.161234
     62          1           0       -4.237952   -4.778701   -0.572958
     63          1           0       -5.206954   -4.183579   -1.899582
     64          1           0       -1.504868   -4.213858   -1.380496
     65          1           0        1.833902   -5.410776   -2.123831
     66          1           0        1.031406   -5.734989   -0.605953
     67          1           0        0.091726   -5.325298   -2.020952
     68          1           0       -5.157456    0.859036   -0.346780
     69          1           0       -5.369356    3.665223   -1.260081
     70          1           0       -5.788951    2.895888    0.251584
     71          1           0       -5.255755    4.559782    0.236557
     72          1           0       -3.583319    6.747310   -0.783564
     73          1           0       -3.904263    6.498214    1.024652
     74          1           0       -1.402523    5.700567    0.260997
     75          1           0        0.018119    4.346232    0.662737
     76          1           0        2.755714    4.918006   -0.230783
     77          1           0        2.081547    4.854645    1.379978
     78          1           0        3.741481    4.381428    1.108401
     79          1           0        3.654766   -0.696229   -0.390693
     80          1           0        5.012124    2.605530    0.696765
     81          1           0        4.978844    0.916145    0.260157
     82          1           0        4.555524    3.200106   -1.684520
     83          1           0        4.604596    1.510590   -2.098667
     84          1           0        7.528691    1.517907   -3.017979
     85          1           0        3.877196   -3.994131   -1.612076
     86          1           0        4.273621   -2.566419   -0.698912
     87          1           0        4.901763   -4.606197    0.548527
     88          1           0        3.253164   -5.169105    0.476602
     89          1           0        4.754049   -2.078728    1.324033
 ---------------------------------------------------------------------

 SCF Done:  E(UPBE1PBE) =  -3512.26535314     A.U. after   79 cycles

 Alpha virt. eigenvalues --    0.65524   0.65813   0.66062   0.66467   0.66685
 Alpha virt. eigenvalues --    0.67160   0.67542   0.67854   0.68285   0.68577
 Alpha virt. eigenvalues --    0.68737   0.68995   0.69212   0.69593   0.70416

  Beta  occ. eigenvalues -- -256.53470 -30.29980 -26.13121 -26.12707 -26.12124
  Beta  occ. eigenvalues --  -19.44020 -19.42496 -19.35246 -19.32647 -19.26723
  Beta  occ. eigenvalues --  -19.25344 -14.54602 -14.51464 -14.50171 -14.50136
  Beta  occ. eigenvalues --  -14.50048 -14.49729 -10.44001 -10.42671 -10.38474
  Beta  occ. eigenvalues --  -10.37038 -10.36755 -10.36747 -10.36583 -10.36567
  Beta  occ. eigenvalues --  -10.36502 -10.36300 -10.36050 -10.36027 -10.34236
  Beta  occ. eigenvalues --  -10.33716 -10.33602 -10.33425 -10.33353 -10.33340
  Beta  occ. eigenvalues --  -10.33260 -10.33093 -10.33005 -10.32941 -10.32866
  Beta  occ. eigenvalues --  -10.32765 -10.32763 -10.32718 -10.32631 -10.32515
  Beta  occ. eigenvalues --  -10.32439 -10.32169 -10.31689 -10.31665 -10.30923
  Beta  occ. eigenvalues --  -10.30506 -10.30444 -10.30383 -10.29834 -10.29533
  Beta  occ. eigenvalues --   -3.62262  -2.37991  -2.37385  -2.36665  -1.36434
  Beta  occ. eigenvalues --   -1.24792  -1.23419  -1.17066  -1.11989  -1.10401
  Beta  occ. eigenvalues --   -1.09535  -1.09341  -1.09122  -1.08113  -1.02736
  Beta  occ. eigenvalues --   -0.95248  -0.94628  -0.93951  -0.93474  -0.93194
  Beta  occ. eigenvalues --   -0.92443  -0.92170  -0.91076  -0.90750  -0.89481
  Beta  occ. eigenvalues --   -0.88875  -0.87379  -0.86884  -0.86564  -0.84535
  Beta  occ. eigenvalues --   -0.82972  -0.82667  -0.82454  -0.81933  -0.80146
  Beta  occ. eigenvalues --   -0.79182  -0.78741  -0.77018  -0.76763  -0.75798
  Beta  occ. eigenvalues --   -0.74982  -0.73873  -0.72220  -0.71020  -0.70597
  Beta  occ. eigenvalues --   -0.70217  -0.69457  -0.67121  -0.67032  -0.66059
  Beta  occ. eigenvalues --   -0.65853  -0.64667  -0.64337  -0.63819  -0.63383
  Beta  occ. eigenvalues --   -0.63158  -0.62271  -0.60889  -0.60764  -0.60464
  Beta  occ. eigenvalues --   -0.59731  -0.59345  -0.58769  -0.58542  -0.58283
  Beta  occ. eigenvalues --   -0.57956  -0.57598  -0.57402  -0.56909  -0.56537
  Beta  occ. eigenvalues --   -0.55929  -0.55555  -0.55330  -0.54780  -0.54616
  Beta  occ. eigenvalues --   -0.54365  -0.54236  -0.54138  -0.53926  -0.53839
  Beta  occ. eigenvalues --   -0.53431  -0.53174  -0.52989  -0.52853  -0.52579
  Beta  occ. eigenvalues --   -0.52509  -0.52152  -0.52038  -0.51685  -0.51509
  Beta  occ. eigenvalues --   -0.51206  -0.51056  -0.50875  -0.50762  -0.50137
  Beta  occ. eigenvalues --   -0.50077  -0.49720  -0.49658  -0.49274  -0.49141
  Beta  occ. eigenvalues --   -0.48722  -0.48521  -0.48193  -0.48019  -0.47488
  Beta  occ. eigenvalues --   -0.47164  -0.47060  -0.46936  -0.46470  -0.46271
  Beta  occ. eigenvalues --   -0.46065  -0.44561  -0.43928  -0.43862  -0.43440
  Beta  occ. eigenvalues --   -0.43321  -0.42120  -0.41612  -0.40348  -0.40155
  Beta  occ. eigenvalues --   -0.39832  -0.39290  -0.39022  -0.37502  -0.36951
  Beta  occ. eigenvalues --   -0.36615  -0.35426  -0.34916  -0.34490  -0.34342
  Beta  occ. eigenvalues --   -0.32476  -0.30751  -0.30063
  Beta virt. eigenvalues --   -0.26149  -0.22692  -0.19829  -0.18239  -0.17495
  Beta virt. eigenvalues --   -0.15674  -0.13937  -0.13696  -0.13039  -0.11919
  Beta virt. eigenvalues --   -0.09523  -0.09213  -0.08539  -0.07812  -0.07715

 Mulliken charges and spin densities:
               1          2
     1  C   -0.369432  -0.000491
     2  C    0.139813   0.001265
     3  N   -0.210384   0.001209
     4  C   -0.212572  -0.001833
     5  C    0.020023   0.010735
     6  N    0.046909  -0.032333
     7  Fe  -0.363861   1.211321
     8  C   -0.502748  -0.049697
     9  C   -0.463471   0.017186
    10  C   -0.469702   0.101940
    11  C   -0.452320   0.035039
    12  N   -0.011760  -0.044383
    13  C    0.327417   0.070826
    14  C    0.031031  -0.016640
    15  C   -0.051879   0.033948
    16  C    0.306126   0.020515
    17  C   -0.407834  -0.002150
    18  C   -0.421638  -0.000386
    19  C   -0.191441  -0.000667
    20  C    0.294222   0.000526
    21  O   -0.373783  -0.000003
    22  O   -0.282267  -0.000034
    23  N    0.068984  -0.005299
    24  C    0.236785   0.011152
    25  C   -0.094213   0.007158
    26  C    0.033102   0.011697
    27  C    0.270904  -0.012288
    28  C   -0.358301   0.000107
    29  C   -0.219251  -0.004077
    30  C   -0.301322   0.004305
    31  N   -0.032249   0.017120
    32  C    0.320349  -0.068228
    33  C   -0.123648   0.320859
    34  C    0.023680  -0.151395
    35  C    0.244465   0.074188
    36  C   -0.356293  -0.018612
    37  C   -0.068930   0.657720
    38  C   -0.358843   0.993680
    39  N    0.029001  -0.029267
    40  C    0.285039   0.010181
    41  C   -0.107706   0.037029
    42  C    0.008600  -0.010545
    43  C    0.284223   0.073372
    44  C   -0.371987  -0.002718
    45  C   -0.349800  -0.000600
    46  C   -0.137790   0.000342
    47  C    0.274382   0.000022
    48  O   -0.344367   0.000217
    49  O   -0.363506   0.000013
    50  O    0.066400   0.653422
    51  O    0.000965   0.981957
    52  H    0.153523  -0.000072
    53  H    0.209829  -0.000713
    54  H    0.261390  -0.000117
    55  H    0.153817   0.000057
    56  H    0.160375   0.000211
    57  H    0.144483  -0.000129
    58  H    0.137733   0.000702
    59  H    0.162563  -0.000239
    60  H    0.155917  -0.000181
    61  H    0.134563   0.000142
    62  H    0.154664   0.000711
    63  H    0.157134   0.000180
    64  H    0.128049  -0.000922
    65  H    0.149061   0.000558
    66  H    0.167092   0.002221
    67  H    0.139655   0.000247
    68  H    0.120661  -0.004144
    69  H    0.162656   0.017642
    70  H    0.138404   0.009116
    71  H    0.149101   0.000979
    72  H    0.167235   0.009339
    73  H    0.165849   0.014204
    74  H    0.134187   0.036295
    75  H    0.112002   0.001207
    76  H    0.159438   0.002488
    77  H    0.143531   0.000651
    78  H    0.151514   0.000304
    79  H    0.079451   0.002306
    80  H    0.153354  -0.000059
    81  H    0.106817  -0.000175
    82  H    0.142712  -0.000018
    83  H    0.119038  -0.000006
    84  H    0.364258   0.000002
    85  H    0.151220  -0.000054
    86  H    0.151112  -0.000116
    87  H    0.156647  -0.000000
    88  H    0.130798   0.000045
    89  H    0.331048  -0.000064
 Sum of Mulliken charges =   1.00000   5.00000

 Dipole moment (field-independent basis, Debye):
    X=             -3.2579    Y=             -1.8058    Z=              0.2145  Tot=              3.7310
 Quadrupole moment (field-independent basis, Debye-Ang):
   XX=           -224.6986   YY=           -235.7489   ZZ=           -261.9773
   XY=            -26.9777   XZ=            -19.7198   YZ=             13.5606

 Summary of Natural Population Analysis:

                                       Natural Population
                Natural  -----------------------------------------------
    Atom  No    Charge         Core      Valence    Rydberg      Total
 -----------------------------------------------------------------------
      C    1   -0.32300      0.99969     2.32000    0.00331     3.32300
      C    2    0.06950      0.99960     1.92355    0.00735     2.93050
      N    3   -0.23764      0.99970     2.72813    0.00981     3.73764
      C    4   -0.04659      0.99950     2.03824    0.00885     3.04659
      C    5    0.11529      0.99963     1.87366    0.01142     2.88471
      N    6   -0.18440      0.99963     2.66180    0.02297     3.68440
     Fe    7    0.74662      8.99474     3.23498    0.02366    12.25338
      C    8   -0.13346      0.99946     2.12534    0.00865     3.13346
      C    9   -0.10182      0.99947     2.09466    0.00769     3.10182
      C   10   -0.07070      0.99951     2.06395    0.00725     3.07070
      C   11   -0.09948      0.99950     2.09232    0.00765     3.09948
      N   12   -0.21196      0.99967     2.68938    0.02290     3.71196
      C   13    0.11672      0.99953     1.87347    0.01028     2.88328
      C   14   -0.02131      0.99947     2.01260    0.00924     3.02131
      C   15    0.01616      0.99943     1.97600    0.00840     2.98384
      C   16    0.08250      0.99947     1.90787    0.01015     2.91750
      C   17   -0.32110      0.99970     2.31525    0.00616     3.32110
      C   18   -0.21055      0.99964     2.20360    0.00731     3.21055
      C   19   -0.25432      0.99962     2.24657    0.00813     3.25432
      C   20    0.38440      0.99973     1.59864    0.01724     2.61560
      O   21   -0.29428      0.99989     3.28205    0.01235     4.29428
      O   22   -0.31888      0.99983     3.30415    0.01491     4.31888
      N   23   -0.18207      0.99965     2.66131    0.02112     3.68207
      C   24    0.08752      0.99955     1.90336    0.00958     2.91248
      C   25    0.02059      0.99941     1.97139    0.00861     2.97941
      C   26   -0.04041      0.99934     2.03053    0.01054     3.04041
      C   27    0.10041      0.99954     1.89013    0.00992     2.89959
      C   28   -0.32352      0.99969     2.31749    0.00634     3.32352
      C   29   -0.10873      0.99961     2.09983    0.00930     3.10873
      C   30   -0.17823      0.99965     2.17031    0.00828     3.17823
      N   31   -0.18821      0.99965     2.66503    0.02352     3.68821
      C   32    0.05898      0.99952     1.93167    0.00983     2.94102
      C   33    0.14554      0.99940     1.84691    0.00815     2.85446
      C   34   -0.09399      0.99936     2.08476    0.00987     3.09399
      C   35    0.14123      0.99954     1.84890    0.01033     2.85877
      C   36   -0.32193      0.99970     2.31622    0.00602     3.32193
      C   37    0.24172      0.99955     1.75064    0.00809     2.75828
      C   38    0.29326      0.99956     1.69907    0.00811     2.70674
      N   39   -0.18921      0.99966     2.66817    0.02138     3.68921
      C   40    0.09097      0.99950     1.89952    0.01001     2.90903
      C   41    0.01781      0.99945     1.97469    0.00805     2.98219
      C   42   -0.00661      0.99947     1.99820    0.00895     3.00661
      C   43    0.11122      0.99949     1.87911    0.01017     2.88878
      C   44   -0.32258      0.99970     2.31666    0.00623     3.32258
      C   45   -0.20650      0.99965     2.20043    0.00642     3.20650
      C   46   -0.24714      0.99961     2.23929    0.00824     3.24714
      C   47    0.37805      0.99974     1.60420    0.01802     2.62195
      O   48   -0.28322      0.99989     3.27159    0.01173     4.28322
      O   49   -0.34227      0.99981     3.32884    0.01362     4.34227
      O   50    0.36747      0.99979     2.61572    0.01703     3.63253
      O   51    0.51660      0.99995     2.47563    0.00782     3.48340
      H   52    0.11587      0.00000     0.38345    0.00068     0.38413
      H   53    0.11783      0.00000     0.38126    0.00091     0.38217
      H   54    0.21845      0.00000     0.28073    0.00082     0.28155
      H   55    0.12074      0.00000     0.37877    0.00049     0.37926
      H   56    0.11830      0.00000     0.38105    0.00065     0.38170
      H   57    0.11497      0.00000     0.38440    0.00063     0.38503
      H   58    0.10865      0.00000     0.39049    0.00087     0.39135
      H   59    0.10226      0.00000     0.39687    0.00087     0.39774
      H   60    0.10579      0.00000     0.39352    0.00069     0.39421
      H   61    0.11237      0.00000     0.38710    0.00053     0.38763
      H   62    0.11768      0.00000     0.38164    0.00068     0.38232
      H   63    0.12188      0.00000     0.37754    0.00058     0.37812
      H   64    0.11496      0.00000     0.38371    0.00134     0.38504
      H   65    0.11560      0.00000     0.38380    0.00060     0.38440
      H   66    0.11901      0.00000     0.38030    0.00069     0.38099
      H   67    0.11260      0.00000     0.38692    0.00048     0.38740
      H   68    0.11311      0.00000     0.38571    0.00118     0.38689
      H   69    0.12650      0.00000     0.37295    0.00055     0.37350
      H   70    0.11651      0.00000     0.38303    0.00046     0.38349
      H   71    0.11890      0.00000     0.38059    0.00051     0.38110
      H   72    0.11569      0.00000     0.38377    0.00054     0.38431
      H   73    0.11475      0.00000     0.38469    0.00056     0.38525
      H   74    0.12893      0.00000     0.37048    0.00060     0.37107
      H   75    0.11159      0.00000     0.38718    0.00123     0.38841
      H   76    0.11859      0.00000     0.38073    0.00068     0.38141
      H   77    0.11368      0.00000     0.38580    0.00052     0.38632
      H   78    0.11775      0.00000     0.38163    0.00062     0.38225
      H   79    0.10514      0.00000     0.39346    0.00140     0.39486
      H   80    0.11991      0.00000     0.37924    0.00085     0.38009
      H   81    0.10344      0.00000     0.39551    0.00105     0.39656
      H   82    0.12189      0.00000     0.37750    0.00061     0.37811
      H   83    0.11030      0.00000     0.38901    0.00069     0.38970
      H   84    0.26155      0.00000     0.23730    0.00116     0.23845
      H   85    0.12090      0.00000     0.37824    0.00086     0.37910
      H   86    0.09915      0.00000     0.39998    0.00086     0.40085
      H   87    0.11768      0.00000     0.38167    0.00066     0.38232
      H   88    0.12024      0.00000     0.37905    0.00071     0.37976
      H   89    0.24842      0.00000     0.25061    0.00097     0.25158
 =======================================================================
   * Total *    3.00000     58.97484   128.43545    0.58971   188.00000

 Normal termination of Gaussian 16 at Sun Sep 11 11:50:12 2022.
