 Gaussian 16, Revision A.03,
 Gaussian 16:  ES64L-G16RevA.03 25-Dec-2016

 ----------------------------------------------------------------------
 # PBE1PBE/def2TZVP empiricaldispersion=GD3BJ scf=maxcycle=999 geom=che
 ck pop=nbo
 ----------------------------------------------------------------------

 ----------
 1a6m_III_D
 ----------
 Structure from the checkpoint file:  "1a6m_III_D.chk"
 Charge =  1 Multiplicity = 2

                         Standard orientation:
 ---------------------------------------------------------------------
 Center     Atomic      Atomic             Coordinates (Angstroms)
 Number     Number       Type             X           Y           Z
 ---------------------------------------------------------------------
      1          6           0       -1.593213   -0.088727    5.340081
      2          6           0       -1.210641   -0.419821    3.935053
      3          7           0       -0.413737   -1.487716    3.595814
      4          6           0       -1.441400    0.240916    2.745104
      5          6           0       -0.206834   -1.436510    2.265679
      6          7           0       -0.798295   -0.447423    1.723055
      7         26           0       -0.747246    0.079337   -0.271439
      8          6           0        2.601930   -0.514834   -0.331246
      9          6           0       -1.318362   -3.193250   -1.118821
     10          6           0       -4.102281    0.682462   -0.364866
     11          6           0       -0.153927    3.320524    0.411293
     12          7           0        0.397979   -1.517917   -0.645063
     13          6           0        1.767803   -1.597516   -0.558918
     14          6           0        2.227035   -2.959048   -0.855304
     15          6           0        1.100999   -3.678989   -1.135708
     16          6           0       -0.011415   -2.808795   -0.981001
     17          6           0        1.007680   -5.144774   -1.498132
     18          6           0        3.631511   -3.421230   -0.742408
     19          6           0        3.876494   -4.300848    0.526503
     20          6           0        3.562988   -3.543008    1.781295
     21          8           0        2.640625   -3.900169    2.528952
     22          8           0        4.263272   -2.506631    2.029467
     23          7           0       -2.383006   -1.009151   -0.629741
     24          6           0       -2.423138   -2.366669   -0.946751
     25          6           0       -3.824717   -2.781388   -1.129494
     26          6           0       -4.586260   -1.707341   -0.933535
     27          6           0       -3.684827   -0.626366   -0.615362
     28          6           0       -4.229232   -4.187726   -1.464907
     29          6           0       -6.083968   -1.573614   -1.060357
     30          6           0       -6.746236   -2.258608   -2.024075
     31          7           0       -1.902207    1.689395    0.022240
     32          6           0       -3.278516    1.776034   -0.137126
     33          6           0       -3.714607    3.145839   -0.055265
     34          6           0       -2.600906    3.871333    0.130714
     35          6           0       -1.481495    2.956351    0.205343
     36          6           0       -5.133619    3.599088   -0.218469
     37          6           0       -2.408849    5.345745    0.181566
     38          6           0       -3.357406    6.253141    0.138206
     39          7           0        0.908348    1.187939    0.078615
     40          6           0        0.965306    2.521831    0.330951
     41          6           0        2.311213    2.965755    0.454090
     42          6           0        3.098928    1.877097    0.173174
     43          6           0        2.212654    0.761044   -0.038434
     44          6           0        2.754437    4.382048    0.695309
     45          6           0        4.594303    1.886263    0.023727
     46          6           0        4.993117    2.255747   -1.436329
     47          6           0        6.473491    2.345741   -1.628052
     48          8           0        7.123189    3.373545   -1.332453
     49          8           0        7.030659    1.372688   -2.210218
     50          8           0       -0.637735    0.450599   -2.035766
     51          8           0       -0.843930    1.580306   -2.490925
     52          1           0       -2.019051    1.134071    2.628943
     53          1           0        0.386354   -2.145429    1.726735
     54          1           0       -0.052907   -2.177782    4.223198
     55          1           0       -1.742578    0.966998    5.429717
     56          1           0       -2.498590   -0.599791    5.593077
     57          1           0       -0.812587   -0.396157    6.004167
     58          1           0       -6.623064   -0.937953   -0.389379
     59          1           0       -6.293984   -2.405808   -2.982564
     60          1           0       -7.721382   -2.652245   -1.826492
     61          1           0       -3.531093   -4.603214   -2.161234
     62          1           0       -4.237952   -4.778701   -0.572958
     63          1           0       -5.206954   -4.183579   -1.899582
     64          1           0       -1.504868   -4.213858   -1.380496
     65          1           0        1.833902   -5.410776   -2.123831
     66          1           0        1.031406   -5.734989   -0.605953
     67          1           0        0.091726   -5.325298   -2.020952
     68          1           0       -5.157456    0.859036   -0.346780
     69          1           0       -5.369356    3.665223   -1.260081
     70          1           0       -5.788951    2.895888    0.251584
     71          1           0       -5.255755    4.559782    0.236557
     72          1           0       -3.583319    6.747310   -0.783564
     73          1           0       -3.904263    6.498214    1.024652
     74          1           0       -1.402523    5.700567    0.260997
     75          1           0        0.018119    4.346232    0.662737
     76          1           0        2.755714    4.918006   -0.230783
     77          1           0        2.081547    4.854645    1.379978
     78          1           0        3.741481    4.381428    1.108401
     79          1           0        3.654766   -0.696229   -0.390693
     80          1           0        5.012124    2.605530    0.696765
     81          1           0        4.978844    0.916145    0.260157
     82          1           0        4.555524    3.200106   -1.684520
     83          1           0        4.604596    1.510590   -2.098667
     84          1           0        7.528691    1.517907   -3.017979
     85          1           0        3.877196   -3.994131   -1.612076
     86          1           0        4.273621   -2.566419   -0.698912
     87          1           0        4.901763   -4.606197    0.548527
     88          1           0        3.253164   -5.169105    0.476602
     89          1           0        4.754049   -2.078728    1.324033
 ---------------------------------------------------------------------

 SCF Done:  E(UPBE1PBE) =  -3512.28987711     A.U. after   55 cycles

 Alpha virt. eigenvalues --    0.66871   0.67228   0.67804   0.68219   0.68458
 Alpha virt. eigenvalues --    0.68889   0.69042   0.69285   0.69562   0.69608
 Alpha virt. eigenvalues --    0.70084   0.70816   0.71032   0.71235   0.71485

  Beta  occ. eigenvalues -- -256.47936 -30.26685 -26.09792 -26.09645 -26.07495
  Beta  occ. eigenvalues --  -19.35541 -19.34993 -19.32373 -19.30968 -19.26460
  Beta  occ. eigenvalues --  -19.25083 -14.53397 -14.50242 -14.49297 -14.49003
  Beta  occ. eigenvalues --  -14.48722 -14.48157 -10.43748 -10.42399 -10.39018
  Beta  occ. eigenvalues --  -10.37579 -10.37080 -10.36981 -10.36932 -10.36622
  Beta  occ. eigenvalues --  -10.36322 -10.36130 -10.36108 -10.35936 -10.35754
  Beta  occ. eigenvalues --  -10.35649 -10.35216 -10.33539 -10.33261 -10.33225
  Beta  occ. eigenvalues --  -10.33169 -10.33142 -10.33083 -10.33052 -10.32930
  Beta  occ. eigenvalues --  -10.32862 -10.32843 -10.32814 -10.32758 -10.32738
  Beta  occ. eigenvalues --  -10.32498 -10.32347 -10.32345 -10.31743 -10.31353
  Beta  occ. eigenvalues --  -10.31015 -10.30683 -10.30577 -10.30385 -10.29717
  Beta  occ. eigenvalues --   -3.62817  -2.40408  -2.39783  -2.35073  -1.28003
  Beta  occ. eigenvalues --   -1.24542  -1.23146  -1.15648  -1.11725  -1.10564
  Beta  occ. eigenvalues --   -1.09274  -1.08885  -1.08592  -1.07552  -1.01216
  Beta  occ. eigenvalues --   -0.96715  -0.95171  -0.94348  -0.93550  -0.93166
  Beta  occ. eigenvalues --   -0.92856  -0.92105  -0.90651  -0.89754  -0.89057
  Beta  occ. eigenvalues --   -0.88560  -0.86975  -0.86912  -0.84886  -0.83690
  Beta  occ. eigenvalues --   -0.83365  -0.82637  -0.81977  -0.81644  -0.80122
  Beta  occ. eigenvalues --   -0.78885  -0.78446  -0.77149  -0.76720  -0.75627
  Beta  occ. eigenvalues --   -0.73756  -0.73670  -0.73294  -0.71095  -0.70837
  Beta  occ. eigenvalues --   -0.70650  -0.69221  -0.66929  -0.66485  -0.66016
  Beta  occ. eigenvalues --   -0.65917  -0.65054  -0.63881  -0.63295  -0.63104
  Beta  occ. eigenvalues --   -0.62178  -0.61119  -0.60680  -0.59710  -0.59567
  Beta  occ. eigenvalues --   -0.59122  -0.58404  -0.58185  -0.57672  -0.57373
  Beta  occ. eigenvalues --   -0.57114  -0.57085  -0.56862  -0.56652  -0.56227
  Beta  occ. eigenvalues --   -0.55877  -0.55734  -0.55316  -0.54980  -0.54876
  Beta  occ. eigenvalues --   -0.54457  -0.54344  -0.54049  -0.53746  -0.53375
  Beta  occ. eigenvalues --   -0.53160  -0.53037  -0.52786  -0.52553  -0.52360
  Beta  occ. eigenvalues --   -0.52261  -0.51784  -0.51575  -0.51444  -0.51322
  Beta  occ. eigenvalues --   -0.50926  -0.50644  -0.50625  -0.50469  -0.50395
  Beta  occ. eigenvalues --   -0.49992  -0.49661  -0.49554  -0.49250  -0.48807
  Beta  occ. eigenvalues --   -0.48676  -0.48234  -0.47979  -0.47742  -0.47305
  Beta  occ. eigenvalues --   -0.46977  -0.46786  -0.46299  -0.46044  -0.45851
  Beta  occ. eigenvalues --   -0.45300  -0.44299  -0.43913  -0.43696  -0.43061
  Beta  occ. eigenvalues --   -0.42621  -0.41597  -0.41347  -0.41038  -0.39929
  Beta  occ. eigenvalues --   -0.39889  -0.39423  -0.38837  -0.38009  -0.37652
  Beta  occ. eigenvalues --   -0.36809  -0.36335  -0.35081  -0.33997  -0.33503
  Beta  occ. eigenvalues --   -0.33459  -0.32402  -0.30792  -0.30696  -0.28886
  Beta virt. eigenvalues --   -0.24696  -0.18014  -0.17706  -0.16714  -0.13432
  Beta virt. eigenvalues --   -0.13324  -0.12473  -0.11666  -0.09922  -0.08993
  Beta virt. eigenvalues --   -0.08267  -0.07554  -0.06658  -0.05819  -0.04971

 Mulliken charges and spin densities:
               1          2
     1  C   -0.371872  -0.000099
     2  C    0.138343  -0.000608
     3  N   -0.216163  -0.002223
     4  C   -0.207329  -0.001391
     5  C    0.016651  -0.008118
     6  N    0.015629   0.009801
     7  Fe  -0.358254  -1.229591
     8  C   -0.518057  -0.047790
     9  C   -0.478196  -0.066879
    10  C   -0.467480  -0.082722
    11  C   -0.486974  -0.009131
    12  N    0.006714  -0.013673
    13  C    0.354029   0.087675
    14  C    0.031717   0.017226
    15  C   -0.057204   0.001916
    16  C    0.327845   0.096460
    17  C   -0.408867  -0.000501
    18  C   -0.421450  -0.002650
    19  C   -0.191794   0.001416
    20  C    0.292663   0.000607
    21  O   -0.371534  -0.000012
    22  O   -0.282018  -0.000045
    23  N    0.075803  -0.009633
    24  C    0.267670   0.119241
    25  C   -0.099591  -0.001725
    26  C    0.035330   0.007784
    27  C    0.273740   0.089918
    28  C   -0.358313   0.000353
    29  C   -0.220370  -0.013866
    30  C   -0.298568   0.022744
    31  N    0.012066   0.006281
    32  C    0.327324   0.131619
    33  C   -0.101853  -0.214733
    34  C    0.011124   0.204133
    35  C    0.299070   0.059551
    36  C   -0.357850   0.012097
    37  C    0.005794  -0.416591
    38  C   -0.333193   1.016085
    39  N    0.028233   0.015583
    40  C    0.286148   0.049410
    41  C   -0.102607   0.020722
    42  C    0.005495  -0.017853
    43  C    0.310469   0.082376
    44  C   -0.376162  -0.000994
    45  C   -0.350134   0.000719
    46  C   -0.138047  -0.000104
    47  C    0.274770  -0.000061
    48  O   -0.346064   0.000210
    49  O   -0.363170  -0.000019
    50  O   -0.016278   0.431301
    51  O   -0.194759   0.692731
    52  H    0.136969  -0.000248
    53  H    0.199901  -0.000241
    54  H    0.256690  -0.000160
    55  H    0.148658   0.000005
    56  H    0.157370  -0.000004
    57  H    0.142776  -0.000024
    58  H    0.136407   0.001719
    59  H    0.165297  -0.001117
    60  H    0.156075  -0.001236
    61  H    0.135451   0.000353
    62  H    0.154420   0.000716
    63  H    0.156472   0.000250
    64  H    0.128825   0.002971
    65  H    0.149263   0.000333
    66  H    0.167023   0.000949
    67  H    0.139842  -0.000034
    68  H    0.118163   0.003900
    69  H    0.172965  -0.010503
    70  H    0.148245  -0.002994
    71  H    0.142661  -0.002591
    72  H    0.192246  -0.059893
    73  H    0.191667  -0.058802
    74  H    0.159160   0.083558
    75  H    0.099130   0.000003
    76  H    0.161007   0.001823
    77  H    0.138169   0.000399
    78  H    0.152185   0.000289
    79  H    0.078585   0.002469
    80  H    0.152023  -0.000104
    81  H    0.106518  -0.000194
    82  H    0.142476   0.000004
    83  H    0.123310   0.000016
    84  H    0.364049  -0.000001
    85  H    0.152779   0.001228
    86  H    0.152378   0.000076
    87  H    0.156640   0.000236
    88  H    0.130836  -0.000072
    89  H    0.330892  -0.000028
 Sum of Mulliken charges =   1.00000   1.00000

 Dipole moment (field-independent basis, Debye):
    X=             -5.3155    Y=              1.3572    Z=              1.8224  Tot=              5.7808
 Quadrupole moment (field-independent basis, Debye-Ang):
   XX=           -212.2208   YY=           -206.7784   ZZ=           -271.9480
   XY=            -40.6453   XZ=            -20.4061   YZ=             18.8924

 Summary of Natural Population Analysis:

                                       Natural Population
                Natural  -----------------------------------------------
    Atom  No    Charge         Core      Valence    Rydberg      Total
 -----------------------------------------------------------------------
      C    1   -0.32241      0.99969     2.31939    0.00333     3.32241
      C    2    0.06524      0.99960     1.92757    0.00759     2.93476
      N    3   -0.24245      0.99970     2.73284    0.00991     3.74245
      C    4   -0.04910      0.99950     2.04004    0.00956     3.04910
      C    5    0.10632      0.99965     1.88389    0.01014     2.89368
      N    6   -0.19942      0.99966     2.67291    0.02686     3.69942
     Fe    7   -0.37923      8.99525     4.35625    0.02772    13.37923
      C    8   -0.14364      0.99946     2.13549    0.00869     3.14364
      C    9   -0.14352      0.99947     2.13631    0.00774     3.14352
      C   10   -0.14807      0.99951     2.14095    0.00761     3.14807
      C   11   -0.12740      0.99950     2.11976    0.00814     3.12740
      N   12   -0.20641      0.99966     2.68132    0.02542     3.70641
      C   13    0.13858      0.99953     1.85158    0.01031     2.86142
      C   14    0.00084      0.99947     1.99047    0.00923     2.99916
      C   15    0.00084      0.99943     1.99132    0.00842     2.99916
      C   16    0.13728      0.99947     1.85308    0.01017     2.86272
      C   17   -0.32062      0.99970     2.31476    0.00616     3.32062
      C   18   -0.21261      0.99964     2.20569    0.00728     3.21261
      C   19   -0.25272      0.99962     2.24498    0.00812     3.25272
      C   20    0.38363      0.99973     1.59944    0.01721     2.61637
      O   21   -0.29326      0.99989     3.28101    0.01236     4.29326
      O   22   -0.31880      0.99983     3.30405    0.01493     4.31880
      N   23   -0.20261      0.99965     2.67843    0.02453     3.70261
      C   24    0.15764      0.99955     1.83295    0.00986     2.84236
      C   25    0.01117      0.99941     1.98083    0.00859     2.98883
      C   26   -0.03263      0.99934     2.02276    0.01053     3.03263
      C   27    0.14636      0.99954     1.84409    0.01001     2.85364
      C   28   -0.32299      0.99969     2.31700    0.00630     3.32299
      C   29   -0.11394      0.99961     2.10500    0.00932     3.11394
      C   30   -0.16707      0.99965     2.15916    0.00826     3.16707
      N   31   -0.17442      0.99966     2.64805    0.02671     3.67442
      C   32    0.14014      0.99952     1.85036    0.00998     2.85986
      C   33   -0.08410      0.99941     2.07552    0.00916     3.08410
      C   34    0.03576      0.99933     1.95430    0.01061     2.96424
      C   35    0.15215      0.99954     1.83770    0.01061     2.84785
      C   36   -0.31257      0.99969     2.30646    0.00641     3.31257
      C   37   -0.19495      0.99957     2.18568    0.00969     3.19495
      C   38    0.30160      0.99956     1.69011    0.00873     2.69840
      N   39   -0.19488      0.99965     2.67070    0.02454     3.69488
      C   40    0.12098      0.99950     1.86909    0.01043     2.87902
      C   41    0.01098      0.99945     1.98153    0.00804     2.98902
      C   42   -0.00799      0.99947     1.99958    0.00895     3.00799
      C   43    0.13318      0.99950     1.85733    0.00999     2.86682
      C   44   -0.32220      0.99970     2.31628    0.00622     3.32220
      C   45   -0.20645      0.99965     2.20040    0.00640     3.20645
      C   46   -0.24748      0.99961     2.23960    0.00827     3.24748
      C   47    0.37832      0.99974     1.60392    0.01802     2.62168
      O   48   -0.28400      0.99989     3.27238    0.01173     4.28400
      O   49   -0.34222      0.99981     3.32879    0.01362     4.34222
      O   50    0.18144      0.99981     2.79689    0.02185     3.81856
      O   51    0.26288      0.99995     2.72882    0.00836     3.73712
      H   52    0.11123      0.00000     0.38805    0.00072     0.38877
      H   53    0.11439      0.00000     0.38457    0.00104     0.38561
      H   54    0.21636      0.00000     0.28273    0.00091     0.28364
      H   55    0.11897      0.00000     0.38053    0.00050     0.38103
      H   56    0.11683      0.00000     0.38250    0.00067     0.38317
      H   57    0.11420      0.00000     0.38515    0.00065     0.38580
      H   58    0.10894      0.00000     0.39019    0.00087     0.39106
      H   59    0.10261      0.00000     0.39652    0.00087     0.39739
      H   60    0.10524      0.00000     0.39408    0.00069     0.39476
      H   61    0.11263      0.00000     0.38684    0.00054     0.38737
      H   62    0.11739      0.00000     0.38192    0.00069     0.38261
      H   63    0.12160      0.00000     0.37784    0.00056     0.37840
      H   64    0.11552      0.00000     0.38314    0.00134     0.38448
      H   65    0.11568      0.00000     0.38371    0.00061     0.38432
      H   66    0.11831      0.00000     0.38099    0.00070     0.38169
      H   67    0.11240      0.00000     0.38712    0.00049     0.38760
      H   68    0.11427      0.00000     0.38453    0.00120     0.38573
      H   69    0.11703      0.00000     0.38221    0.00075     0.38297
      H   70    0.11537      0.00000     0.38411    0.00052     0.38463
      H   71    0.11400      0.00000     0.38546    0.00054     0.38600
      H   72    0.09427      0.00000     0.40475    0.00098     0.40573
      H   73    0.09218      0.00000     0.40676    0.00106     0.40782
      H   74    0.15040      0.00000     0.34893    0.00067     0.34960
      H   75    0.10679      0.00000     0.39194    0.00127     0.39321
      H   76    0.11831      0.00000     0.38100    0.00069     0.38169
      H   77    0.11187      0.00000     0.38759    0.00053     0.38813
      H   78    0.11803      0.00000     0.38135    0.00062     0.38197
      H   79    0.10414      0.00000     0.39445    0.00141     0.39586
      H   80    0.11947      0.00000     0.37968    0.00085     0.38053
      H   81    0.10336      0.00000     0.39559    0.00105     0.39664
      H   82    0.12201      0.00000     0.37738    0.00061     0.37799
      H   83    0.11132      0.00000     0.38800    0.00068     0.38868
      H   84    0.26150      0.00000     0.23734    0.00116     0.23850
      H   85    0.12229      0.00000     0.37687    0.00085     0.37771
      H   86    0.09959      0.00000     0.39955    0.00086     0.40041
      H   87    0.11771      0.00000     0.38163    0.00066     0.38229
      H   88    0.12029      0.00000     0.37900    0.00071     0.37971
      H   89    0.24836      0.00000     0.25067    0.00098     0.25164
 =======================================================================
   * Total *    1.00000     58.97541   130.40145    0.62314   190.00000

 Normal termination of Gaussian 16 at Fri Sep  9 11:10:49 2022.
