 Gaussian 16, Revision A.03,
 Gaussian 16:  ES64L-G16RevA.03 25-Dec-2016

 ----------------------------------------------------------------------
 # PBE1PBE/def2TZVP empiricaldispersion=GD3BJ scf=maxcycle=999 geom=che
 ck pop=nbo
 ----------------------------------------------------------------------

 ----------
 1a6k_III_H
 ----------
 Structure from the checkpoint file:  "1a6k_III_H.chk"
 Charge =  1 Multiplicity = 6

                         Standard orientation:
 ---------------------------------------------------------------------
 Center     Atomic      Atomic             Coordinates (Angstroms)
 Number     Number       Type             X           Y           Z
 ---------------------------------------------------------------------
      1          6           0       -1.628464   -0.035347    5.376603
      2          6           0       -1.246317   -0.363958    3.971197
      3          7           0       -0.384630   -1.372420    3.687947
      4          6           0       -1.530114    0.272890    2.789900
      5          6           0       -0.188023   -1.369426    2.368862
      6          7           0       -0.866560   -0.399928    1.778997
      7         26           0       -0.752908    0.099032   -0.294427
      8          6           0        2.609922   -0.530376   -0.320170
      9          6           0       -1.399339   -3.153495   -1.159378
     10          6           0       -4.109755    0.760360   -0.488845
     11          6           0       -0.131812    3.366302    0.296355
     12          7           0        0.357060   -1.523923   -0.757296
     13          6           0        1.763245   -1.623084   -0.614916
     14          6           0        2.167268   -2.970271   -0.830887
     15          6           0        1.040221   -3.721774   -1.113479
     16          6           0       -0.041543   -2.810355   -1.005407
     17          6           0        0.908708   -5.186288   -1.462268
     18          6           0        3.600327   -3.496641   -0.723195
     19          6           0        3.766799   -4.342399    0.558866
     20          6           0        3.498716   -3.508402    1.828964
     21          8           0        2.561911   -3.891291    2.549556
     22          8           0        4.223241   -2.493865    2.025092
     23          7           0       -2.424873   -0.976527   -0.779977
     24          6           0       -2.507206   -2.337492   -1.045260
     25          6           0       -3.864746   -2.736750   -1.200029
     26          6           0       -4.656428   -1.656828   -1.028466
     27          6           0       -3.750216   -0.531330   -0.712240
     28          6           0       -4.296299   -4.172073   -1.499493
     29          6           0       -6.142090   -1.512924   -1.147596
     30          6           0       -6.850195   -2.199454   -2.017639
     31          7           0       -1.916101    1.743657   -0.045526
     32          6           0       -3.292748    1.867833   -0.219508
     33          6           0       -3.702619    3.214792   -0.147178
     34          6           0       -2.574123    3.953948    0.056811
     35          6           0       -1.459253    3.052842    0.083881
     36          6           0       -5.124967    3.717419   -0.310928
     37          6           0       -2.374798    5.437669    0.046976
     38          6           0       -3.291499    6.356809    0.105326
     39          7           0        0.922273    1.213805   -0.020313
     40          6           0        0.940878    2.547587    0.259988
     41          6           0        2.365053    2.946215    0.330286
     42          6           0        3.107949    1.901220    0.141689
     43          6           0        2.254263    0.761191   -0.056825
     44          6           0        2.810032    4.410884    0.604205
     45          6           0        4.636883    1.849962   -0.014667
     46          6           0        5.048924    2.203065   -1.464035
     47          6           0        6.518479    2.258581   -1.689718
     48          8           0        7.129012    3.301571   -1.411168
     49          8           0        7.084536    1.339938   -2.272002
     50          8           0       -0.637587    0.758156   -2.314977
     51          1           0       -1.766485    1.021518    5.470866
     52          1           0       -2.539967   -0.537648    5.625110
     53          1           0       -0.852808   -0.354411    6.041025
     54          1           0       -2.152704    1.135001    2.671386
     55          1           0        0.027266   -2.002032    4.346681
     56          1           0        0.440301   -2.064701    1.852432
     57          1           0        0.148602    0.923725   -2.840423
     58          1           0       -0.386698    0.347295   -1.484406
     59          1           0       -6.450282   -2.406860   -2.988182
     60          1           0       -7.826204   -2.550589   -1.754942
     61          1           0       -6.646479   -0.825879   -0.500711
     62          1           0       -3.607393   -4.615395   -2.187805
     63          1           0       -4.307246   -4.738027   -0.591486
     64          1           0       -5.276374   -4.167621   -1.928833
     65          1           0       -1.597399   -4.178253   -1.395055
     66          1           0        1.722895   -5.477324   -2.092583
     67          1           0        0.925886   -5.769483   -0.565335
     68          1           0       -0.015774   -5.348995   -1.975843
     69          1           0       -5.160500    0.959493   -0.523221
     70          1           0       -5.362917    3.781600   -1.352159
     71          1           0       -5.800169    3.039537    0.168111
     72          1           0       -5.214785    4.685546    0.135795
     73          1           0       -3.561369    6.899979   -0.776170
     74          1           0       -3.776465    6.570483    1.034870
     75          1           0       -1.362953    5.780033   -0.015130
     76          1           0        0.073780    4.392487    0.519009
     77          1           0        2.818135    4.958964   -0.314731
     78          1           0        2.125910    4.869694    1.287119
     79          1           0        3.792224    4.411782    1.028700
     80          1           0        5.083889    2.550382    0.659497
     81          1           0        4.982438    0.864866    0.220020
     82          1           0        4.632863    1.469395   -2.122458
     83          1           0        4.632222    3.157017   -1.711492
     84          1           0        7.573877    1.512728   -3.079645
     85          1           0        3.658740   -0.741367   -0.301077
     86          1           0        3.819598   -4.102524   -1.577435
     87          1           0        4.279191   -2.670153   -0.692197
     88          1           0        4.765215   -4.725285    0.597124
     89          1           0        3.079487   -5.161879    0.527997
     90          1           0        4.708308   -2.102074    1.295154
 ---------------------------------------------------------------------

 SCF Done:  E(UPBE1PBE) =  -3438.30363599     A.U. after   47 cycles

 Alpha virt. eigenvalues --    0.60674   0.60887   0.61146   0.61200   0.61639
 Alpha virt. eigenvalues --    0.61841   0.62104   0.62312   0.62696   0.62958
 Alpha virt. eigenvalues --    0.63157   0.63384   0.63558   0.64025   0.64588

  Beta  occ. eigenvalues -- -256.47363 -30.20205 -26.03743 -26.03432 -26.02988
  Beta  occ. eigenvalues --  -19.35706 -19.32801 -19.28992 -19.26486 -19.24285
  Beta  occ. eigenvalues --  -14.53283 -14.48304 -14.47943 -14.47556 -14.47287
  Beta  occ. eigenvalues --  -14.47126 -10.43992 -10.41742 -10.37378 -10.36748
  Beta  occ. eigenvalues --  -10.36509 -10.36350 -10.36269 -10.36019 -10.35804
  Beta  occ. eigenvalues --  -10.35739 -10.35722 -10.35299 -10.35259 -10.34818
  Beta  occ. eigenvalues --  -10.34706 -10.33260 -10.33178 -10.33117 -10.32924
  Beta  occ. eigenvalues --  -10.32910 -10.32697 -10.32695 -10.32682 -10.32612
  Beta  occ. eigenvalues --  -10.32468 -10.32343 -10.32188 -10.31994 -10.31792
  Beta  occ. eigenvalues --  -10.31669 -10.31569 -10.31402 -10.31001 -10.30516
  Beta  occ. eigenvalues --  -10.30386 -10.30257 -10.29732 -10.29511  -3.51425
  Beta  occ. eigenvalues --   -2.27741  -2.25553  -2.25412  -1.25275  -1.25132
  Beta  occ. eigenvalues --   -1.15100  -1.13959  -1.11890  -1.09523  -1.08633
  Beta  occ. eigenvalues --   -1.07709  -1.07188  -1.06286  -1.00106  -0.95644
  Beta  occ. eigenvalues --   -0.94614  -0.93494  -0.93028  -0.92313  -0.91935
  Beta  occ. eigenvalues --   -0.91531  -0.89821  -0.89346  -0.88501  -0.88181
  Beta  occ. eigenvalues --   -0.87005  -0.86342  -0.84531  -0.82665  -0.82034
  Beta  occ. eigenvalues --   -0.81006  -0.80651  -0.79487  -0.78648  -0.78518
  Beta  occ. eigenvalues --   -0.77344  -0.76098  -0.75585  -0.74173  -0.73552
  Beta  occ. eigenvalues --   -0.72700  -0.70961  -0.70664  -0.70303  -0.68526
  Beta  occ. eigenvalues --   -0.68301  -0.66388  -0.65789  -0.65018  -0.64914
  Beta  occ. eigenvalues --   -0.64302  -0.63303  -0.62959  -0.62105  -0.61720
  Beta  occ. eigenvalues --   -0.60473  -0.60438  -0.59483  -0.59443  -0.58436
  Beta  occ. eigenvalues --   -0.58147  -0.58117  -0.57094  -0.56708  -0.56510
  Beta  occ. eigenvalues --   -0.56471  -0.56274  -0.55714  -0.55595  -0.55028
  Beta  occ. eigenvalues --   -0.54762  -0.54645  -0.54338  -0.53744  -0.53725
  Beta  occ. eigenvalues --   -0.53502  -0.53181  -0.52878  -0.52482  -0.52425
  Beta  occ. eigenvalues --   -0.52251  -0.51839  -0.51490  -0.51175  -0.51095
  Beta  occ. eigenvalues --   -0.50976  -0.50619  -0.50469  -0.50451  -0.50068
  Beta  occ. eigenvalues --   -0.49854  -0.49676  -0.49465  -0.49223  -0.49043
  Beta  occ. eigenvalues --   -0.48790  -0.48380  -0.47908  -0.47780  -0.47339
  Beta  occ. eigenvalues --   -0.47046  -0.46865  -0.46272  -0.46013  -0.45811
  Beta  occ. eigenvalues --   -0.45376  -0.45186  -0.44019  -0.43639  -0.43250
  Beta  occ. eigenvalues --   -0.43083  -0.42614  -0.41850  -0.41435  -0.41190
  Beta  occ. eigenvalues --   -0.39950  -0.39773  -0.39642  -0.39063  -0.37971
  Beta  occ. eigenvalues --   -0.36783  -0.36082  -0.35162  -0.34574  -0.34194
  Beta  occ. eigenvalues --   -0.32786  -0.32070  -0.30699  -0.30172  -0.28936
  Beta virt. eigenvalues --   -0.24304  -0.18992  -0.16975  -0.16266  -0.13817
  Beta virt. eigenvalues --   -0.13606  -0.11931  -0.10570  -0.09121  -0.08952
  Beta virt. eigenvalues --   -0.08088  -0.07210  -0.06202  -0.05862  -0.05462

 Mulliken charges and spin densities:
               1          2
     1  C   -0.373093   0.000811
     2  C    0.160047   0.005026
     3  N   -0.210358   0.002222
     4  C   -0.203979   0.002095
     5  C    0.000190   0.008331
     6  N   -0.089948   0.046470
     7  Fe   0.020585   3.867133
     8  C   -0.480366  -0.024314
     9  C   -0.494383  -0.090950
    10  C   -0.461018  -0.085471
    11  C   -0.442785   0.005847
    12  N   -0.056032   0.029298
    13  C    0.309244   0.037140
    14  C    0.003690   0.055346
    15  C   -0.059963  -0.034243
    16  C    0.343269   0.105147
    17  C   -0.402026   0.002165
    18  C   -0.413178  -0.003112
    19  C   -0.198038   0.001793
    20  C    0.292772   0.000972
    21  O   -0.371651   0.000008
    22  O   -0.270538  -0.000113
    23  N   -0.046502  -0.039319
    24  C    0.286967   0.115726
    25  C   -0.116454  -0.012921
    26  C    0.048477   0.049816
    27  C    0.244789   0.081330
    28  C   -0.364438   0.001375
    29  C   -0.210183  -0.031492
    30  C   -0.297430   0.048735
    31  N   -0.085425   0.049584
    32  C    0.293785   0.115443
    33  C   -0.044774  -0.126904
    34  C   -0.033032   0.227689
    35  C    0.275003  -0.032865
    36  C   -0.366080   0.010682
    37  C   -0.030049  -0.467686
    38  C   -0.322732   0.944662
    39  N   -0.038150   0.039625
    40  C    0.210416  -0.006043
    41  C   -0.065111   0.032322
    42  C   -0.009699  -0.011547
    43  C    0.265675   0.042515
    44  C   -0.390301  -0.000837
    45  C   -0.334724   0.001910
    46  C   -0.150635  -0.000667
    47  C    0.262548  -0.000073
    48  O   -0.350567  -0.000010
    49  O   -0.333498  -0.000011
    50  O   -0.434097   0.097657
    51  H    0.147685   0.000045
    52  H    0.155735   0.000172
    53  H    0.135714   0.000176
    54  H    0.140647   0.000904
    55  H    0.257106   0.000741
    56  H    0.207777   0.000019
    57  H    0.331452   0.011345
    58  H    0.179533  -0.032881
    59  H    0.159950  -0.002537
    60  H    0.153745  -0.002678
    61  H    0.131612   0.004280
    62  H    0.134138  -0.000194
    63  H    0.154525  -0.000172
    64  H    0.154017   0.000255
    65  H    0.122288   0.003298
    66  H    0.147514  -0.000476
    67  H    0.166816  -0.000909
    68  H    0.139968  -0.000341
    69  H    0.118350   0.003280
    70  H    0.168878  -0.004990
    71  H    0.146842  -0.001960
    72  H    0.147573  -0.001660
    73  H    0.185282  -0.062662
    74  H    0.185827  -0.061490
    75  H    0.159057   0.084913
    76  H    0.103666  -0.001916
    77  H    0.156909   0.001337
    78  H    0.139512   0.000494
    79  H    0.153774   0.000521
    80  H    0.149824  -0.000138
    81  H    0.105127  -0.000090
    82  H    0.111062   0.000095
    83  H    0.140989   0.000026
    84  H    0.367831   0.000000
    85  H    0.056202   0.000504
    86  H    0.148538   0.001805
    87  H    0.150580   0.000228
    88  H    0.151073   0.000470
    89  H    0.129536  -0.000098
    90  H    0.337122  -0.000013
 Sum of Mulliken charges =   1.00000   5.00000

 Dipole moment (field-independent basis, Debye):
    X=             -4.1898    Y=              1.8433    Z=             -0.5902  Tot=              4.6152
 Quadrupole moment (field-independent basis, Debye-Ang):
   XX=           -214.1696   YY=           -211.4013   ZZ=           -260.2197
   XY=            -39.4828   XZ=            -20.1756   YZ=             12.7297

 Summary of Natural Population Analysis:

                                       Natural Population
                Natural  -----------------------------------------------
    Atom  No    Charge         Core      Valence    Rydberg      Total
 -----------------------------------------------------------------------
      C    1   -0.32051      0.99969     2.31762    0.00319     3.32051
      C    2    0.06276      0.99959     1.92862    0.00902     2.93724
      N    3   -0.23416      0.99967     2.72421    0.01028     3.73416
      C    4   -0.04480      0.99948     2.03612    0.00921     3.04480
      C    5    0.10353      0.99968     1.88591    0.01088     2.89647
      N    6   -0.17460      0.99973     2.65285    0.02202     3.67460
     Fe    7    2.16429      8.98562     1.82672    0.02337    10.83571
      C    8   -0.12700      0.99947     2.11909    0.00843     3.12700
      C    9   -0.13061      0.99951     2.12377    0.00733     3.13061
      C   10   -0.13462      0.99948     2.12764    0.00751     3.13462
      C   11   -0.11698      0.99945     2.10972    0.00781     3.11698
      N   12   -0.21001      0.99971     2.68820    0.02210     3.71001
      C   13    0.09286      0.99950     1.89652    0.01112     2.90714
      C   14    0.01348      0.99944     1.97768    0.00940     2.98652
      C   15   -0.01901      0.99944     2.01114    0.00843     3.01901
      C   16    0.13403      0.99951     1.85635    0.01011     2.86597
      C   17   -0.31940      0.99970     2.31344    0.00627     3.31940
      C   18   -0.21036      0.99967     2.20371    0.00698     3.21036
      C   19   -0.25188      0.99964     2.24465    0.00759     3.25188
      C   20    0.38802      0.99976     1.59468    0.01755     2.61198
      O   21   -0.29570      0.99989     3.28345    0.01237     4.29570
      O   22   -0.31644      0.99981     3.30155    0.01508     4.31644
      N   23   -0.21823      0.99973     2.70046    0.01803     3.71823
      C   24    0.13985      0.99950     1.85116    0.00949     2.86015
      C   25   -0.00311      0.99940     1.99521    0.00850     3.00311
      C   26   -0.00033      0.99941     1.99073    0.01019     3.00033
      C   27    0.12966      0.99952     1.86106    0.00977     2.87034
      C   28   -0.31901      0.99969     2.31568    0.00364     3.31901
      C   29   -0.12351      0.99955     2.11413    0.00983     3.12351
      C   30   -0.15346      0.99958     2.14510    0.00878     3.15346
      N   31   -0.16247      0.99974     2.64182    0.02091     3.66247
      C   32    0.12791      0.99950     1.86270    0.00988     2.87209
      C   33   -0.04594      0.99941     2.03782    0.00871     3.04594
      C   34    0.05978      0.99936     1.93071    0.01015     2.94022
      C   35    0.07375      0.99952     1.91660    0.01013     2.92625
      C   36   -0.31313      0.99970     2.30727    0.00617     3.31313
      C   37   -0.24346      0.99955     2.23384    0.01007     3.24346
      C   38    0.27404      0.99953     1.71759    0.00884     2.72596
      N   39   -0.19814      0.99970     2.68027    0.01817     3.69814
      C   40    0.08376      0.99951     1.90689    0.00984     2.91624
      C   41    0.02672      0.99928     1.96544    0.00855     2.97328
      C   42   -0.03127      0.99926     2.02223    0.00979     3.03127
      C   43    0.11184      0.99950     1.87886    0.00980     2.88816
      C   44   -0.32097      0.99970     2.31777    0.00350     3.32097
      C   45   -0.19953      0.99967     2.19360    0.00626     3.19953
      C   46   -0.24821      0.99961     2.24004    0.00855     3.24821
      C   47    0.37679      0.99973     1.60444    0.01904     2.62321
      O   48   -0.29007      0.99989     3.27808    0.01210     4.29007
      O   49   -0.33419      0.99978     3.31977    0.01465     4.33419
      O   50   -0.33188      0.99993     3.32282    0.00913     4.33188
      H   51    0.11808      0.00000     0.38142    0.00049     0.38192
      H   52    0.11615      0.00000     0.38321    0.00064     0.38385
      H   53    0.11199      0.00000     0.38739    0.00062     0.38801
      H   54    0.11255      0.00000     0.38676    0.00069     0.38745
      H   55    0.21726      0.00000     0.28194    0.00080     0.28274
      H   56    0.11451      0.00000     0.38457    0.00092     0.38549
      H   57    0.24611      0.00000     0.25238    0.00151     0.25389
      H   58    0.16640      0.00000     0.32937    0.00423     0.33360
      H   59    0.10137      0.00000     0.39768    0.00095     0.39863
      H   60    0.10491      0.00000     0.39438    0.00071     0.39509
      H   61    0.10959      0.00000     0.38950    0.00091     0.39041
      H   62    0.11100      0.00000     0.38836    0.00065     0.38900
      H   63    0.11551      0.00000     0.38374    0.00074     0.38449
      H   64    0.11954      0.00000     0.37975    0.00071     0.38046
      H   65    0.11176      0.00000     0.38689    0.00135     0.38824
      H   66    0.11492      0.00000     0.38440    0.00068     0.38508
      H   67    0.11746      0.00000     0.38181    0.00073     0.38254
      H   68    0.11309      0.00000     0.38643    0.00048     0.38691
      H   69    0.11292      0.00000     0.38591    0.00116     0.38708
      H   70    0.11768      0.00000     0.38162    0.00070     0.38232
      H   71    0.11582      0.00000     0.38366    0.00052     0.38418
      H   72    0.11418      0.00000     0.38530    0.00052     0.38582
      H   73    0.08922      0.00000     0.40971    0.00107     0.41078
      H   74    0.08787      0.00000     0.41090    0.00123     0.41213
      H   75    0.15099      0.00000     0.34828    0.00073     0.34901
      H   76    0.10884      0.00000     0.38992    0.00124     0.39116
      H   77    0.11519      0.00000     0.38413    0.00069     0.38481
      H   78    0.11115      0.00000     0.38824    0.00061     0.38885
      H   79    0.11628      0.00000     0.38299    0.00072     0.38372
      H   80    0.11798      0.00000     0.38113    0.00088     0.38202
      H   81    0.10210      0.00000     0.39714    0.00076     0.39790
      H   82    0.10709      0.00000     0.39219    0.00072     0.39291
      H   83    0.12183      0.00000     0.37756    0.00061     0.37817
      H   84    0.26276      0.00000     0.23604    0.00120     0.23724
      H   85    0.10245      0.00000     0.39564    0.00191     0.39755
      H   86    0.12093      0.00000     0.37823    0.00085     0.37907
      H   87    0.09732      0.00000     0.40185    0.00083     0.40268
      H   88    0.11505      0.00000     0.38433    0.00062     0.38495
      H   89    0.11878      0.00000     0.38053    0.00070     0.38122
      H   90    0.25128      0.00000     0.24767    0.00105     0.24872
 =======================================================================
   * Total *    3.00000     57.96566   126.45870    0.57564   185.00000

 Normal termination of Gaussian 16 at Fri Sep 30 06:30:21 2022.
