 Gaussian 16, Revision A.03,
 Gaussian 16:  ES64L-G16RevA.03 25-Dec-2016

 ---------------------------------------------------------------------
 # polar def2tzvp empiricaldispersion=gd3bj int=grid=ultrafine pbe1pbe
 ---------------------------------------------------------------------

 ---------
 1a6k_II_S
 ---------
 Symbolic Z-matrix:
 Charge =  0 Multiplicity = 1

                         Standard orientation:
 ---------------------------------------------------------------------
 Center     Atomic      Atomic             Coordinates (Angstroms)
 Number     Number       Type             X           Y           Z
 ---------------------------------------------------------------------
      1          6           0       -1.628464   -0.035347    5.376603
      2          6           0       -1.246317   -0.363958    3.971197
      3          7           0       -0.384630   -1.372420    3.687947
      4          6           0       -1.530114    0.272890    2.789900
      5          6           0       -0.188023   -1.369426    2.368862
      6          7           0       -0.866560   -0.399928    1.778997
      7         26           0       -0.752908    0.099032   -0.294427
      8          6           0        2.609922   -0.530376   -0.320170
      9          6           0       -1.399339   -3.153495   -1.159378
     10          6           0       -4.109755    0.760360   -0.488845
     11          6           0       -0.131812    3.366302    0.296355
     12          7           0        0.357060   -1.523923   -0.757296
     13          6           0        1.763245   -1.623084   -0.614916
     14          6           0        2.167268   -2.970271   -0.830887
     15          6           0        1.040221   -3.721774   -1.113479
     16          6           0       -0.041543   -2.810355   -1.005407
     17          6           0        0.908708   -5.186288   -1.462268
     18          6           0        3.600327   -3.496641   -0.723195
     19          6           0        3.766799   -4.342399    0.558866
     20          6           0        3.498716   -3.508402    1.828964
     21          8           0        2.561911   -3.891291    2.549556
     22          8           0        4.223241   -2.493865    2.025092
     23          7           0       -2.424873   -0.976527   -0.779977
     24          6           0       -2.507206   -2.337492   -1.045260
     25          6           0       -3.864746   -2.736750   -1.200029
     26          6           0       -4.656428   -1.656828   -1.028466
     27          6           0       -3.750216   -0.531330   -0.712240
     28          6           0       -4.296299   -4.172073   -1.499493
     29          6           0       -6.142090   -1.512924   -1.147596
     30          6           0       -6.850195   -2.199454   -2.017639
     31          7           0       -1.916101    1.743657   -0.045526
     32          6           0       -3.292748    1.867833   -0.219508
     33          6           0       -3.702619    3.214792   -0.147178
     34          6           0       -2.574123    3.953948    0.056811
     35          6           0       -1.459253    3.052842    0.083881
     36          6           0       -5.124967    3.717419   -0.310928
     37          6           0       -2.374798    5.437669    0.046976
     38          6           0       -3.291499    6.356809    0.105326
     39          7           0        0.922273    1.213805   -0.020313
     40          6           0        0.940878    2.547587    0.259988
     41          6           0        2.365053    2.946215    0.330286
     42          6           0        3.107949    1.901220    0.141689
     43          6           0        2.254263    0.761191   -0.056825
     44          6           0        2.810032    4.410884    0.604205
     45          6           0        4.636883    1.849962   -0.014667
     46          6           0        5.048924    2.203065   -1.464035
     47          6           0        6.518479    2.258581   -1.689718
     48          8           0        7.129012    3.301571   -1.411168
     49          8           0        7.084536    1.339938   -2.272002
     50          8           0       -0.637587    0.758156   -2.314977
     51          1           0       -1.766485    1.021518    5.470866
     52          1           0       -2.539967   -0.537648    5.625110
     53          1           0       -0.852808   -0.354411    6.041025
     54          1           0       -2.152704    1.135001    2.671386
     55          1           0        0.027266   -2.002032    4.346681
     56          1           0        0.440301   -2.064701    1.852432
     57          1           0        0.148602    0.923725   -2.840423
     58          1           0       -0.386698    0.347295   -1.484406
     59          1           0       -6.450282   -2.406860   -2.988182
     60          1           0       -7.826204   -2.550589   -1.754942
     61          1           0       -6.646479   -0.825879   -0.500711
     62          1           0       -3.607393   -4.615395   -2.187805
     63          1           0       -4.307246   -4.738027   -0.591486
     64          1           0       -5.276374   -4.167621   -1.928833
     65          1           0       -1.597399   -4.178253   -1.395055
     66          1           0        1.722895   -5.477324   -2.092583
     67          1           0        0.925886   -5.769483   -0.565335
     68          1           0       -0.015774   -5.348995   -1.975843
     69          1           0       -5.160500    0.959493   -0.523221
     70          1           0       -5.362917    3.781600   -1.352159
     71          1           0       -5.800169    3.039537    0.168111
     72          1           0       -5.214785    4.685546    0.135795
     73          1           0       -3.561369    6.899979   -0.776170
     74          1           0       -3.776465    6.570483    1.034870
     75          1           0       -1.362953    5.780033   -0.015130
     76          1           0        0.073780    4.392487    0.519009
     77          1           0        2.818135    4.958964   -0.314731
     78          1           0        2.125910    4.869694    1.287119
     79          1           0        3.792224    4.411782    1.028700
     80          1           0        5.083889    2.550382    0.659497
     81          1           0        4.982438    0.864866    0.220020
     82          1           0        4.632863    1.469395   -2.122458
     83          1           0        4.632222    3.157017   -1.711492
     84          1           0        7.573877    1.512728   -3.079645
     85          1           0        3.658740   -0.741367   -0.301077
     86          1           0        3.819598   -4.102524   -1.577435
     87          1           0        4.279191   -2.670153   -0.692197
     88          1           0        4.765215   -4.725285    0.597124
     89          1           0        3.079487   -5.161879    0.527997
     90          1           0        4.708308   -2.102074    1.295154
 ---------------------------------------------------------------------

 SCF Done:  E(RPBE1PBE) =  -3438.49131696     A.U. after   26 cycles

 The electronic state is 1-A.
 Alpha  occ. eigenvalues -- -256.32698 -30.09255 -25.92175 -25.91724 -25.91637
 Alpha  occ. eigenvalues --  -19.28045 -19.26415 -19.19953 -19.18828 -19.17708
 Alpha  occ. eigenvalues --  -14.44620 -14.39712 -14.37602 -14.37504 -14.37200
 Alpha  occ. eigenvalues --  -14.37097 -10.36310 -10.35031 -10.27644 -10.26043
 Alpha  occ. eigenvalues --  -10.25399 -10.25078 -10.24685 -10.24542 -10.24536
 Alpha  occ. eigenvalues --  -10.24485 -10.24463 -10.24413 -10.24315 -10.23941
 Alpha  occ. eigenvalues --  -10.23922 -10.23673 -10.23376 -10.22909 -10.22846
 Alpha  occ. eigenvalues --  -10.22817 -10.22667 -10.22600 -10.22561 -10.22470
 Alpha  occ. eigenvalues --  -10.22404 -10.22359 -10.22333 -10.22246 -10.21997
 Alpha  occ. eigenvalues --  -10.21895 -10.21864 -10.21492 -10.21478 -10.21267
 Alpha  occ. eigenvalues --  -10.20664 -10.20639 -10.20486 -10.19696  -3.44654
 Alpha  occ. eigenvalues --   -2.21760  -2.19731  -2.19424  -1.18702  -1.17600
 Alpha  occ. eigenvalues --   -1.06365  -1.04520  -1.04233  -1.02986  -0.97537
 Alpha  occ. eigenvalues --   -0.96642  -0.96415  -0.95383  -0.91309  -0.84613
 Alpha  occ. eigenvalues --   -0.84354  -0.83336  -0.82705  -0.82436  -0.81236
 Alpha  occ. eigenvalues --   -0.81056  -0.80775  -0.79677  -0.79135  -0.77844
 Alpha  occ. eigenvalues --   -0.77165  -0.75530  -0.74461  -0.73198  -0.72371
 Alpha  occ. eigenvalues --   -0.72135  -0.71179  -0.70680  -0.70446  -0.69392
 Alpha  occ. eigenvalues --   -0.67645  -0.66763  -0.66123  -0.65365  -0.64846
 Alpha  occ. eigenvalues --   -0.62189  -0.61149  -0.60322  -0.59713  -0.58728
 Alpha  occ. eigenvalues --   -0.57648  -0.56769  -0.56191  -0.55132  -0.54911
 Alpha  occ. eigenvalues --   -0.54048  -0.53694  -0.52702  -0.52550  -0.52120
 Alpha  occ. eigenvalues --   -0.51931  -0.51217  -0.50566  -0.49828  -0.49546
 Alpha  occ. eigenvalues --   -0.49167  -0.48843  -0.48363  -0.48058  -0.47735
 Alpha  occ. eigenvalues --   -0.46461  -0.46333  -0.45789  -0.45650  -0.45410
 Alpha  occ. eigenvalues --   -0.44897  -0.44646  -0.44342  -0.43967  -0.43892
 Alpha  occ. eigenvalues --   -0.43772  -0.43577  -0.43494  -0.43293  -0.43142
 Alpha  occ. eigenvalues --   -0.42972  -0.42658  -0.42540  -0.42248  -0.41917
 Alpha  occ. eigenvalues --   -0.41794  -0.41518  -0.41126  -0.40949  -0.40617
 Alpha  occ. eigenvalues --   -0.40418  -0.39958  -0.39676  -0.39347  -0.39102
 Alpha  occ. eigenvalues --   -0.38784  -0.38621  -0.38367  -0.38166  -0.38006
 Alpha  occ. eigenvalues --   -0.37817  -0.37244  -0.36896  -0.36597  -0.36177
 Alpha  occ. eigenvalues --   -0.36056  -0.35583  -0.34554  -0.34116  -0.33842
 Alpha  occ. eigenvalues --   -0.33672  -0.33171  -0.32907  -0.32186  -0.31951
 Alpha  occ. eigenvalues --   -0.30690  -0.29803  -0.28945  -0.28791  -0.28295
 Alpha  occ. eigenvalues --   -0.27926  -0.27242  -0.26414  -0.25747  -0.24909
 Alpha  occ. eigenvalues --   -0.24001  -0.22951  -0.21835  -0.21294  -0.20765
 Alpha  occ. eigenvalues --   -0.19553  -0.19315  -0.17131
 Alpha virt. eigenvalues --   -0.08915  -0.06946  -0.05640  -0.02824  -0.02306
 Alpha virt. eigenvalues --   -0.01918  -0.00648   0.00409   0.00884   0.02460
 Alpha virt. eigenvalues --    0.03409   0.03519   0.03625   0.04271   0.04385

 Mulliken charges:
               1
     1  C   -0.382620
     2  C    0.173212
     3  N   -0.221077
     4  C   -0.212640
     5  C   -0.002763
     6  N   -0.045732
     7  Fe  -0.183481
     8  C   -0.462250
     9  C   -0.487442
    10  C   -0.467394
    11  C   -0.454501
    12  N   -0.020906
    13  C    0.274042
    14  C   -0.001255
    15  C   -0.056534
    16  C    0.306246
    17  C   -0.418620
    18  C   -0.421577
    19  C   -0.183108
    20  C    0.293967
    21  O   -0.377824
    22  O   -0.275878
    23  N   -0.003124
    24  C    0.240524
    25  C   -0.106714
    26  C    0.038404
    27  C    0.234733
    28  C   -0.376445
    29  C   -0.217449
    30  C   -0.310947
    31  N   -0.065477
    32  C    0.277687
    33  C   -0.080185
    34  C   -0.007297
    35  C    0.258056
    36  C   -0.377606
    37  C   -0.107237
    38  C   -0.417372
    39  N    0.022811
    40  C    0.212041
    41  C   -0.072727
    42  C   -0.008781
    43  C    0.229240
    44  C   -0.399422
    45  C   -0.344501
    46  C   -0.146999
    47  C    0.261041
    48  O   -0.362770
    49  O   -0.333099
    50  O   -0.431583
    51  H    0.146950
    52  H    0.146341
    53  H    0.124184
    54  H    0.148148
    55  H    0.245639
    56  H    0.209046
    57  H    0.329638
    58  H    0.177734
    59  H    0.145136
    60  H    0.131003
    61  H    0.117957
    62  H    0.125703
    63  H    0.137963
    64  H    0.142264
    65  H    0.099674
    66  H    0.131193
    67  H    0.151652
    68  H    0.134391
    69  H    0.100132
    70  H    0.139482
    71  H    0.128560
    72  H    0.146037
    73  H    0.144027
    74  H    0.144294
    75  H    0.120605
    76  H    0.096075
    77  H    0.144744
    78  H    0.137170
    79  H    0.137601
    80  H    0.138057
    81  H    0.100431
    82  H    0.111775
    83  H    0.137729
    84  H    0.359420
    85  H    0.032934
    86  H    0.131607
    87  H    0.142235
    88  H    0.129035
    89  H    0.120187
    90  H    0.336580
 Sum of Mulliken charges =  -0.00000

 Dipole moment (field-independent basis, Debye):
    X=              2.3137    Y=             -3.6853    Z=              0.4522  Tot=              4.3748
 Quadrupole moment (field-independent basis, Debye-Ang):
   XX=           -284.2001   YY=           -298.2676   ZZ=           -274.6106
   XY=            -19.3603   XZ=            -24.5633   YZ=              7.5313

  Exact polarizability: 799.575 -52.625 841.150  24.531  68.382 377.864
 Approx polarizability:1383.954-114.1831609.606  41.131 177.857 598.616

 Normal termination of Gaussian 16 at Fri Sep  2 11:45:51 2022.
