 Gaussian 16, Revision A.03,
 Gaussian 16:  ES64L-G16RevA.03 25-Dec-2016

 ---------------------------------------------------------------------
 # polar def2tzvp empiricaldispersion=gd3bj int=grid=ultrafine pbe1pbe
 ---------------------------------------------------------------------

 ---------
 1a6m_II_S
 ---------
 Symbolic Z-matrix:
 Charge =  0 Multiplicity = 1

                         Standard orientation:
 ---------------------------------------------------------------------
 Center     Atomic      Atomic             Coordinates (Angstroms)
 Number     Number       Type             X           Y           Z
 ---------------------------------------------------------------------
      1          6           0       -1.593213   -0.088727    5.340081
      2          6           0       -1.210641   -0.419821    3.935053
      3          7           0       -0.413737   -1.487716    3.595814
      4          6           0       -1.441400    0.240916    2.745104
      5          6           0       -0.206834   -1.436510    2.265679
      6          7           0       -0.798295   -0.447423    1.723055
      7         26           0       -0.747246    0.079337   -0.271439
      8          6           0        2.601930   -0.514834   -0.331246
      9          6           0       -1.318362   -3.193250   -1.118821
     10          6           0       -4.102281    0.682462   -0.364866
     11          6           0       -0.153927    3.320524    0.411293
     12          7           0        0.397979   -1.517917   -0.645063
     13          6           0        1.767803   -1.597516   -0.558918
     14          6           0        2.227035   -2.959048   -0.855304
     15          6           0        1.100999   -3.678989   -1.135708
     16          6           0       -0.011415   -2.808795   -0.981001
     17          6           0        1.007680   -5.144774   -1.498132
     18          6           0        3.631511   -3.421230   -0.742408
     19          6           0        3.876494   -4.300848    0.526503
     20          6           0        3.562988   -3.543008    1.781295
     21          8           0        2.640625   -3.900169    2.528952
     22          8           0        4.263272   -2.506631    2.029467
     23          7           0       -2.383006   -1.009151   -0.629741
     24          6           0       -2.423138   -2.366669   -0.946751
     25          6           0       -3.824717   -2.781388   -1.129494
     26          6           0       -4.586260   -1.707341   -0.933535
     27          6           0       -3.684827   -0.626366   -0.615362
     28          6           0       -4.229232   -4.187726   -1.464907
     29          6           0       -6.083968   -1.573614   -1.060357
     30          6           0       -6.746236   -2.258608   -2.024075
     31          7           0       -1.902207    1.689395    0.022240
     32          6           0       -3.278516    1.776034   -0.137126
     33          6           0       -3.714607    3.145839   -0.055265
     34          6           0       -2.600906    3.871333    0.130714
     35          6           0       -1.481495    2.956351    0.205343
     36          6           0       -5.133619    3.599088   -0.218469
     37          6           0       -2.408849    5.345745    0.181566
     38          6           0       -3.357406    6.253141    0.138206
     39          7           0        0.908348    1.187939    0.078615
     40          6           0        0.965306    2.521831    0.330951
     41          6           0        2.311213    2.965755    0.454090
     42          6           0        3.098928    1.877097    0.173174
     43          6           0        2.212654    0.761044   -0.038434
     44          6           0        2.754437    4.382048    0.695309
     45          6           0        4.594303    1.886263    0.023727
     46          6           0        4.993117    2.255747   -1.436329
     47          6           0        6.473491    2.345741   -1.628052
     48          8           0        7.123189    3.373545   -1.332453
     49          8           0        7.030659    1.372688   -2.210218
     50          8           0       -0.637735    0.450599   -2.035766
     51          8           0       -0.843930    1.580306   -2.490925
     52          1           0       -2.019051    1.134071    2.628943
     53          1           0        0.386354   -2.145429    1.726735
     54          1           0       -0.052907   -2.177782    4.223198
     55          1           0       -1.742578    0.966998    5.429717
     56          1           0       -2.498590   -0.599791    5.593077
     57          1           0       -0.812587   -0.396157    6.004167
     58          1           0       -6.623064   -0.937953   -0.389379
     59          1           0       -6.293984   -2.405808   -2.982564
     60          1           0       -7.721382   -2.652245   -1.826492
     61          1           0       -3.531093   -4.603214   -2.161234
     62          1           0       -4.237952   -4.778701   -0.572958
     63          1           0       -5.206954   -4.183579   -1.899582
     64          1           0       -1.504868   -4.213858   -1.380496
     65          1           0        1.833902   -5.410776   -2.123831
     66          1           0        1.031406   -5.734989   -0.605953
     67          1           0        0.091726   -5.325298   -2.020952
     68          1           0       -5.157456    0.859036   -0.346780
     69          1           0       -5.369356    3.665223   -1.260081
     70          1           0       -5.788951    2.895888    0.251584
     71          1           0       -5.255755    4.559782    0.236557
     72          1           0       -3.583319    6.747310   -0.783564
     73          1           0       -3.904263    6.498214    1.024652
     74          1           0       -1.402523    5.700567    0.260997
     75          1           0        0.018119    4.346232    0.662737
     76          1           0        2.755714    4.918006   -0.230783
     77          1           0        2.081547    4.854645    1.379978
     78          1           0        3.741481    4.381428    1.108401
     79          1           0        3.654766   -0.696229   -0.390693
     80          1           0        5.012124    2.605530    0.696765
     81          1           0        4.978844    0.916145    0.260157
     82          1           0        4.555524    3.200106   -1.684520
     83          1           0        4.604596    1.510590   -2.098667
     84          1           0        7.528691    1.517907   -3.017979
     85          1           0        3.877196   -3.994131   -1.612076
     86          1           0        4.273621   -2.566419   -0.698912
     87          1           0        4.901763   -4.606197    0.548527
     88          1           0        3.253164   -5.169105    0.476602
     89          1           0        4.754049   -2.078728    1.324033
 ---------------------------------------------------------------------

 SCF Done:  E(RPBE1PBE) =  -3512.44987679     A.U. after   33 cycles

 The electronic state is 1-A.
 Alpha  occ. eigenvalues -- -256.36810 -30.14232 -25.97235 -25.97047 -25.95951
 Alpha  occ. eigenvalues --  -19.31644 -19.27328 -19.25878 -19.25598 -19.18801
 Alpha  occ. eigenvalues --  -19.18381 -14.44668 -14.39868 -14.38531 -14.38096
 Alpha  occ. eigenvalues --  -14.37982 -14.37590 -10.36070 -10.35567 -10.27850
 Alpha  occ. eigenvalues --  -10.26872 -10.25567 -10.25412 -10.25044 -10.25023
 Alpha  occ. eigenvalues --  -10.25013 -10.24992 -10.24930 -10.24830 -10.24632
 Alpha  occ. eigenvalues --  -10.24472 -10.24081 -10.23890 -10.23645 -10.23561
 Alpha  occ. eigenvalues --  -10.23360 -10.23003 -10.22997 -10.22922 -10.22899
 Alpha  occ. eigenvalues --  -10.22623 -10.22604 -10.22507 -10.22486 -10.22483
 Alpha  occ. eigenvalues --  -10.22331 -10.22321 -10.22073 -10.22072 -10.21696
 Alpha  occ. eigenvalues --  -10.21635 -10.21386 -10.20845 -10.20697 -10.19925
 Alpha  occ. eigenvalues --   -3.48136  -2.24452  -2.23901  -2.22259  -1.23125
 Alpha  occ. eigenvalues --   -1.16864  -1.16608  -1.06705  -1.04068  -1.02632
 Alpha  occ. eigenvalues --   -0.98790  -0.97832  -0.97744  -0.96760  -0.92220
 Alpha  occ. eigenvalues --   -0.85379  -0.84606  -0.84055  -0.83454  -0.83175
 Alpha  occ. eigenvalues --   -0.81810  -0.81462  -0.81336  -0.80027  -0.79621
 Alpha  occ. eigenvalues --   -0.79044  -0.78079  -0.77316  -0.75966  -0.74866
 Alpha  occ. eigenvalues --   -0.73781  -0.73225  -0.72733  -0.72028  -0.70244
 Alpha  occ. eigenvalues --   -0.70045  -0.69865  -0.67918  -0.66587  -0.65961
 Alpha  occ. eigenvalues --   -0.65659  -0.64783  -0.62217  -0.61507  -0.60806
 Alpha  occ. eigenvalues --   -0.59917  -0.58392  -0.57168  -0.57057  -0.55832
 Alpha  occ. eigenvalues --   -0.55269  -0.54553  -0.54357  -0.53046  -0.52903
 Alpha  occ. eigenvalues --   -0.52534  -0.51969  -0.51461  -0.51047  -0.50901
 Alpha  occ. eigenvalues --   -0.50044  -0.49369  -0.49269  -0.49043  -0.48609
 Alpha  occ. eigenvalues --   -0.48432  -0.48275  -0.48223  -0.47892  -0.46605
 Alpha  occ. eigenvalues --   -0.46572  -0.46049  -0.45949  -0.45574  -0.45187
 Alpha  occ. eigenvalues --   -0.44953  -0.44595  -0.44326  -0.44304  -0.44147
 Alpha  occ. eigenvalues --   -0.44012  -0.43864  -0.43671  -0.43527  -0.43252
 Alpha  occ. eigenvalues --   -0.43180  -0.42879  -0.42707  -0.42430  -0.41925
 Alpha  occ. eigenvalues --   -0.41754  -0.41616  -0.40961  -0.40698  -0.40482
 Alpha  occ. eigenvalues --   -0.40098  -0.39812  -0.39616  -0.39510  -0.39214
 Alpha  occ. eigenvalues --   -0.38851  -0.38760  -0.38481  -0.38284  -0.38004
 Alpha  occ. eigenvalues --   -0.37369  -0.37128  -0.37112  -0.36418  -0.36076
 Alpha  occ. eigenvalues --   -0.35433  -0.35121  -0.33770  -0.33497  -0.33276
 Alpha  occ. eigenvalues --   -0.33102  -0.32922  -0.31614  -0.30910  -0.29220
 Alpha  occ. eigenvalues --   -0.29152  -0.28812  -0.28300  -0.27892  -0.27884
 Alpha  occ. eigenvalues --   -0.25936  -0.25551  -0.24925  -0.24473  -0.23636
 Alpha  occ. eigenvalues --   -0.23067  -0.22259  -0.21490  -0.19861  -0.19613
 Alpha  occ. eigenvalues --   -0.16727
 Alpha virt. eigenvalues --   -0.11119  -0.09295  -0.07661  -0.05980  -0.02962
 Alpha virt. eigenvalues --   -0.02051  -0.00583   0.00037   0.00066   0.00208
 Alpha virt. eigenvalues --    0.01456   0.02237   0.03404   0.03531   0.04015

 Mulliken charges:
               1
     1  C   -0.382244
     2  C    0.148032
     3  N   -0.226479
     4  C   -0.213447
     5  C    0.015298
     6  N    0.029863
     7  Fe  -0.387419
     8  C   -0.505926
     9  C   -0.474409
    10  C   -0.475181
    11  C   -0.493734
    12  N   -0.012419
    13  C    0.319604
    14  C    0.024852
    15  C   -0.049351
    16  C    0.293982
    17  C   -0.424504
    18  C   -0.427280
    19  C   -0.178617
    20  C    0.294993
    21  O   -0.377790
    22  O   -0.287194
    23  N    0.064257
    24  C    0.226221
    25  C   -0.091765
    26  C    0.031994
    27  C    0.259735
    28  C   -0.369156
    29  C   -0.226335
    30  C   -0.312538
    31  N   -0.013895
    32  C    0.306445
    33  C   -0.124792
    34  C    0.043084
    35  C    0.274805
    36  C   -0.363536
    37  C   -0.094355
    38  C   -0.433558
    39  N    0.022864
    40  C    0.280300
    41  C   -0.100409
    42  C   -0.003024
    43  C    0.276908
    44  C   -0.384521
    45  C   -0.359463
    46  C   -0.133363
    47  C    0.273241
    48  O   -0.359691
    49  O   -0.362959
    50  O    0.068767
    51  O   -0.178910
    52  H    0.146576
    53  H    0.201428
    54  H    0.244756
    55  H    0.148959
    56  H    0.147541
    57  H    0.130787
    58  H    0.123436
    59  H    0.151193
    60  H    0.133814
    61  H    0.126429
    62  H    0.137456
    63  H    0.143740
    64  H    0.106295
    65  H    0.133000
    66  H    0.151949
    67  H    0.133628
    68  H    0.100132
    69  H    0.140564
    70  H    0.129813
    71  H    0.143401
    72  H    0.146497
    73  H    0.146512
    74  H    0.119356
    75  H    0.089707
    76  H    0.147021
    77  H    0.135744
    78  H    0.135607
    79  H    0.056252
    80  H    0.139870
    81  H    0.100587
    82  H    0.138656
    83  H    0.121243
    84  H    0.355150
    85  H    0.135350
    86  H    0.144495
    87  H    0.135441
    88  H    0.120210
    89  H    0.330422
 Sum of Mulliken charges =  -0.00000

 Dipole moment (field-independent basis, Debye):
    X=              1.0101    Y=             -4.6941    Z=              1.9609  Tot=              5.1865
 Quadrupole moment (field-independent basis, Debye-Ang):
   XX=           -285.0342   YY=           -298.8865   ZZ=           -285.6542
   XY=            -19.2407   XZ=            -23.2630   YZ=             12.1602

  Exact polarizability: 806.221 -50.279 845.007  22.824  62.887 397.250
 Approx polarizability:1409.151-109.5701671.858  41.765 126.278 716.942

 Normal termination of Gaussian 16 at Fri Sep  2 17:30:01 2022.
