 Gaussian 16, Revision A.03,
 Gaussian 16:  ES64L-G16RevA.03 25-Dec-2016

 ----------------------------------------------------------------------
 # PBE1PBE/def2TZVP empiricaldispersion=GD3BJ scf=maxcycle=999 geom=che
 ck pop=nbo
 ----------------------------------------------------------------------

 ----------
 1aw3_III_D
 ----------
 Structure from the checkpoint file:  "1aw3_III_D.chk"
 Charge =  1 Multiplicity = 2

                         Standard orientation:
 ---------------------------------------------------------------------
 Center     Atomic      Atomic             Coordinates (Angstroms)
 Number     Number       Type             X           Y           Z
 ---------------------------------------------------------------------
      1          6           0       -1.448881   -0.351831    5.649911
      2          6           0       -1.144827    0.175470    4.267019
      3          7           0       -0.957151    1.500292    3.965529
      4          6           0       -1.138233   -0.513932    3.081518
      5          6           0       -0.831937    1.602772    2.635928
      6          7           0       -0.954543    0.405563    2.043046
      7          1           0       -2.458239   -0.705400    5.682857
      8          1           0       -1.322159    0.432559    6.366552
      9          1           0       -0.960672    2.267558    4.626269
     10          1           0       -1.276381   -1.572822    2.958989
     11          1           0       -0.678712    2.538031    2.129997
     12          6           0       -0.457788   -2.083737   -5.006504
     13          6           0       -0.591298   -1.060343   -3.914468
     14          7           0       -0.892034    0.271427   -4.074143
     15          6           0       -0.526984   -1.323384   -2.573249
     16          6           0       -0.998357    0.792493   -2.836554
     17          7           0       -0.797932   -0.143303   -1.882453
     18          1           0       -1.215552   -1.919440   -5.743864
     19          1           0       -0.569708   -3.063957   -4.592329
     20          1           0       -1.052591    0.759223   -4.954034
     21          1           0       -0.321712   -2.283608   -2.129788
     22          1           0       -1.234304    1.829589   -2.667156
     23          6           0        2.513473   -0.429642    0.336605
     24          6           0       -1.384778   -3.400560    0.689444
     25          6           0       -4.296533    0.417350   -0.310072
     26          6           0       -0.405767    3.450168   -0.370845
     27          6           0        1.690144   -1.552592    0.432324
     28          6           0        2.189766   -2.901512    0.538967
     29          6           0        1.109553   -3.736367    0.711937
     30          6           0       -0.078678   -2.918809    0.606922
     31          6           0        1.186924   -5.230017    0.938612
     32          6           0        3.636283   -3.320166    0.414843
     33          6           0        4.245663   -2.953623   -0.942011
     34          6           0        5.647330   -3.511565   -1.143925
     35          8           0        5.982278   -4.500007   -0.455878
     36          8           0        6.357568   -2.944754   -2.001081
     37          6           0       -2.495499   -2.590557    0.492207
     38          6           0       -3.858298   -3.067930    0.538492
     39          6           0       -4.641805   -1.993248    0.202751
     40          6           0       -3.811682   -0.837326    0.017569
     41          6           0       -4.321308   -4.461238    0.889527
     42          6           0       -6.150605   -1.971830    0.139032
     43          6           0       -6.824525   -2.939451   -0.501647
     44          6           0       -3.488434    1.547092   -0.401560
     45          6           0       -3.966747    2.853544   -0.774129
     46          6           0       -2.898880    3.705692   -0.657177
     47          6           0       -1.710255    2.939488   -0.389247
     48          6           0       -5.343111    3.200752   -1.267960
     49          6           0       -2.921076    5.180673   -0.988059
     50          6           0       -3.947155    5.979141   -0.618587
     51          6           0        0.729342    2.646868   -0.190646
     52          6           0        2.095599    3.120848   -0.213362
     53          6           0        2.917587    2.037714    0.026292
     54          6           0        2.060022    0.877236    0.145518
     55          6           0        2.541620    4.536042   -0.495706
     56          6           0        4.438267    2.017952    0.004840
     57          6           0        5.154360    3.116395    0.801482
     58          6           0        6.662578    2.970983    0.664109
     59          8           0        7.257943    2.330874    1.556033
     60          8           0        7.187969    3.494637   -0.341552
     61          7           0        0.334289   -1.620577    0.411786
     62          7           0       -2.526479   -1.238624    0.215202
     63          7           0       -2.131315    1.643964   -0.216250
     64          7           0        0.775966    1.299035    0.011763
     65         26           0       -0.887415    0.030362    0.104915
     66          1           0       -1.555534   -4.448745    0.866328
     67          1           0       -5.354131    0.500555   -0.494227
     68          1           0       -0.276780    4.509451   -0.522566
     69          1           0       -6.670709   -1.056618    0.347170
     70          1           0       -2.066654    5.619640   -1.474034
     71          1           0        3.568084   -0.595609    0.451880
     72          1           0        1.844035   -5.435218    1.782936
     73          1           0        0.216769   -5.672316    1.154150
     74          1           0        1.599062   -5.707902    0.050030
     75          1           0        4.228560   -2.853126    1.194594
     76          1           0        3.712160   -4.400031    0.542454
     77          1           0        3.594848   -3.353332   -1.703057
     78          1           0        4.296911   -1.878838   -1.092144
     79          1           0       -3.792366   -4.820598    1.770473
     80          1           0       -5.384969   -4.460714    1.118845
     81          1           0       -4.137945   -5.127718    0.048812
     82          1           0       -6.285091   -3.395439   -1.305582
     83          1           0       -7.903600   -2.914978   -0.535991
     84          1           0       -5.967029    3.523551   -0.433805
     85          1           0       -5.245141    4.000488   -2.001078
     86          1           0       -5.801245    2.347387   -1.761480
     87          1           0       -4.731124    5.601047    0.019994
     88          1           0       -3.865649    7.046772   -0.757982
     89          1           0        2.764315    5.040166    0.445051
     90          1           0        3.428866    4.517674   -1.129166
     91          1           0        1.778154    5.100972   -1.024485
     92          1           0        4.813532    1.093968    0.437656
     93          1           0        4.766686    2.032529   -1.035447
     94          1           0        4.895721    4.110882    0.454578
     95          1           0        4.889033    3.036727    1.852884
     96          1           0        0.506972   -1.996587   -5.460975
     97          1           0       -0.781568   -1.156076    5.879658
     98          1           0        7.006387    2.441992    2.475801
     99          1           0        7.020152   -2.305598   -1.728937
 ---------------------------------------------------------------------

 SCF Done:  E(UPBE1PBE) =  -3627.50525310     A.U. after   59 cycles

 Alpha virt. eigenvalues --    1.03856   1.04258   1.04420   1.05093   1.05360
 Alpha virt. eigenvalues --    1.05825   1.05974   1.06187   1.06970   1.07109
 Alpha virt. eigenvalues --    1.07630   1.07752   1.08022   1.08164   1.08682

  Beta  occ. eigenvalues -- -256.50549 -30.26941 -26.10005 -26.09765 -26.09092
  Beta  occ. eigenvalues --  -19.34025 -19.32270 -19.25246 -19.24952 -14.55972
  Beta  occ. eigenvalues --  -14.55839 -14.51720 -14.51694 -14.48527 -14.48387
  Beta  occ. eigenvalues --  -14.48237 -14.48172 -10.42411 -10.42328 -10.39825
  Beta  occ. eigenvalues --  -10.39527 -10.36690 -10.36539 -10.35760 -10.35538
  Beta  occ. eigenvalues --  -10.35376 -10.35330 -10.35308 -10.35273 -10.34950
  Beta  occ. eigenvalues --  -10.34900 -10.34382 -10.34273 -10.33238 -10.32727
  Beta  occ. eigenvalues --  -10.32710 -10.32502 -10.32226 -10.32200 -10.32134
  Beta  occ. eigenvalues --  -10.32125 -10.32057 -10.31982 -10.31974 -10.31814
  Beta  occ. eigenvalues --  -10.31765 -10.31588 -10.31588 -10.31415 -10.31291
  Beta  occ. eigenvalues --  -10.31101 -10.30626 -10.30464 -10.30447 -10.30223
  Beta  occ. eigenvalues --  -10.30049 -10.29939 -10.29650 -10.29461  -3.59170
  Beta  occ. eigenvalues --   -2.34489  -2.34271  -2.33915  -1.24395  -1.23372
  Beta  occ. eigenvalues --   -1.16542  -1.16205  -1.09992  -1.09815  -1.08648
  Beta  occ. eigenvalues --   -1.07756  -1.07692  -1.06797  -1.02004  -1.01833
  Beta  occ. eigenvalues --   -0.93910  -0.92359  -0.91915  -0.91740  -0.91394
  Beta  occ. eigenvalues --   -0.91180  -0.91045  -0.90840  -0.90803  -0.87798
  Beta  occ. eigenvalues --   -0.87056  -0.86252  -0.85990  -0.85596  -0.83271
  Beta  occ. eigenvalues --   -0.82109  -0.81820  -0.81102  -0.80778  -0.80078
  Beta  occ. eigenvalues --   -0.78713  -0.77643  -0.77160  -0.76095  -0.75899
  Beta  occ. eigenvalues --   -0.75764  -0.75495  -0.74582  -0.72712  -0.72627
  Beta  occ. eigenvalues --   -0.72475  -0.70043  -0.69204  -0.69160  -0.69025
  Beta  occ. eigenvalues --   -0.66763  -0.66468  -0.65300  -0.64469  -0.63815
  Beta  occ. eigenvalues --   -0.63218  -0.62566  -0.62163  -0.61664  -0.60417
  Beta  occ. eigenvalues --   -0.60323  -0.59075  -0.58618  -0.58587  -0.58514
  Beta  occ. eigenvalues --   -0.58195  -0.57935  -0.57704  -0.57688  -0.57450
  Beta  occ. eigenvalues --   -0.56520  -0.56169  -0.55711  -0.55147  -0.54854
  Beta  occ. eigenvalues --   -0.54565  -0.54465  -0.54101  -0.53922  -0.53613
  Beta  occ. eigenvalues --   -0.53541  -0.53266  -0.53183  -0.52999  -0.52814
  Beta  occ. eigenvalues --   -0.52711  -0.52494  -0.52341  -0.52151  -0.52021
  Beta  occ. eigenvalues --   -0.51689  -0.51621  -0.51454  -0.51031  -0.50931
  Beta  occ. eigenvalues --   -0.50523  -0.50253  -0.50049  -0.49842  -0.49649
  Beta  occ. eigenvalues --   -0.49261  -0.48761  -0.48670  -0.48299  -0.48250
  Beta  occ. eigenvalues --   -0.47599  -0.47497  -0.47260  -0.46743  -0.46664
  Beta  occ. eigenvalues --   -0.46298  -0.46038  -0.45861  -0.45600  -0.45206
  Beta  occ. eigenvalues --   -0.44635  -0.44014  -0.43923  -0.43289  -0.43022
  Beta  occ. eigenvalues --   -0.42809  -0.42546  -0.41819  -0.41420  -0.40709
  Beta  occ. eigenvalues --   -0.40367  -0.40003  -0.39537  -0.39208  -0.38962
  Beta  occ. eigenvalues --   -0.38141  -0.37582  -0.36770  -0.36339  -0.34850
  Beta  occ. eigenvalues --   -0.34807  -0.34548  -0.34407  -0.33186  -0.32572
  Beta  occ. eigenvalues --   -0.32354  -0.31666  -0.29961  -0.29263
  Beta virt. eigenvalues --   -0.19147  -0.17771  -0.16042  -0.12471  -0.12024
  Beta virt. eigenvalues --   -0.11619  -0.09342  -0.09237  -0.08256  -0.08218
  Beta virt. eigenvalues --   -0.07992  -0.07533  -0.06759  -0.06036  -0.05959

 Mulliken charges and spin densities:
               1          2
     1  C   -0.351355  -0.000364
     2  C    0.119998  -0.000169
     3  N   -0.199274   0.003829
     4  C   -0.184245   0.002221
     5  C    0.019990   0.020662
     6  N    0.155579  -0.048756
     7  H    0.159866   0.000081
     8  H    0.130499  -0.000059
     9  H    0.258827  -0.000477
    10  H    0.170674  -0.000318
    11  H    0.196626  -0.001170
    12  C   -0.373466  -0.000138
    13  C    0.152751  -0.000597
    14  N   -0.201900   0.003431
    15  C   -0.193672   0.002646
    16  C    0.025193   0.017598
    17  N    0.119632  -0.043547
    18  H    0.141042  -0.000013
    19  H    0.152832  -0.000028
    20  H    0.265326  -0.000439
    21  H    0.161984  -0.000338
    22  H    0.185438  -0.000961
    23  C   -0.511644  -0.005247
    24  C   -0.605499  -0.002977
    25  C   -0.511763  -0.005634
    26  C   -0.592253  -0.001133
    27  C    0.264770   0.003979
    28  C   -0.019041   0.011574
    29  C   -0.003784  -0.003715
    30  C    0.271290   0.007012
    31  C   -0.431121  -0.000279
    32  C   -0.311978  -0.001341
    33  C   -0.241648   0.000528
    34  C    0.299081   0.000064
    35  O   -0.324174  -0.000029
    36  O   -0.347557   0.000024
    37  C    0.232943   0.006565
    38  C   -0.097093  -0.003483
    39  C    0.042129   0.010868
    40  C    0.281658   0.003398
    41  C   -0.382805  -0.000514
    42  C   -0.235689  -0.005249
    43  C   -0.273860   0.006836
    44  C    0.302971   0.002476
    45  C   -0.154201   0.007088
    46  C    0.146853  -0.001660
    47  C    0.095872   0.004797
    48  C   -0.397589  -0.000632
    49  C   -0.255990  -0.000508
    50  C   -0.244981  -0.000279
    51  C    0.274863   0.003767
    52  C   -0.050025  -0.001669
    53  C   -0.016864   0.007940
    54  C    0.326357   0.004056
    55  C   -0.437461  -0.000533
    56  C   -0.356018  -0.000841
    57  C   -0.248592   0.000156
    58  C    0.334433   0.000010
    59  O   -0.306010   0.000008
    60  O   -0.348112   0.000005
    61  N   -0.035901  -0.032124
    62  N   -0.010359  -0.035370
    63  N   -0.011208  -0.037069
    64  N   -0.025986  -0.039592
    65  Fe  -0.251868   1.144195
    66  H    0.135687   0.000175
    67  H    0.132395   0.000161
    68  H    0.127159   0.000092
    69  H    0.127403   0.000594
    70  H    0.122541  -0.000001
    71  H    0.138200   0.000056
    72  H    0.161615  -0.000149
    73  H    0.134105  -0.000035
    74  H    0.156321  -0.000116
    75  H    0.127946   0.000572
    76  H    0.161883  -0.000052
    77  H    0.131959  -0.000003
    78  H    0.111318  -0.000024
    79  H    0.136023   0.000046
    80  H    0.169729  -0.000150
    81  H    0.146638  -0.000044
    82  H    0.146297  -0.000349
    83  H    0.144616  -0.000301
    84  H    0.152296   0.000498
    85  H    0.171366   0.000101
    86  H    0.136452   0.000106
    87  H    0.141238   0.000007
    88  H    0.145627  -0.000046
    89  H    0.161078  -0.000019
    90  H    0.170441  -0.000095
    91  H    0.135769  -0.000029
    92  H    0.102313   0.000025
    93  H    0.153237   0.000433
    94  H    0.131802  -0.000015
    95  H    0.109928   0.000012
    96  H    0.156830  -0.000087
    97  H    0.158982   0.000072
    98  H    0.353308  -0.000000
    99  H    0.363006   0.000007
 Sum of Mulliken charges =   1.00000   1.00000

 Dipole moment (field-independent basis, Debye):
    X=             -7.1041    Y=              3.6972    Z=              2.2698  Tot=              8.3241
 Quadrupole moment (field-independent basis, Debye-Ang):
   XX=           -298.7951   YY=           -286.4696   ZZ=           -235.3696
   XY=              5.7688   XZ=             20.5839   YZ=             15.4010

 Summary of Natural Population Analysis:

                                       Natural Population
                Natural  -----------------------------------------------
    Atom  No    Charge         Core      Valence    Rydberg      Total
 -----------------------------------------------------------------------
      C    1   -0.32037      0.99969     2.31757    0.00311     3.32037
      C    2    0.05928      0.99957     1.93220    0.00895     2.94072
      N    3   -0.23474      0.99968     2.72518    0.00988     3.73474
      C    4   -0.03235      0.99947     2.02414    0.00874     3.03235
      C    5    0.11745      0.99967     1.87243    0.01045     2.88255
      N    6   -0.18705      0.99969     2.66461    0.02275     3.68705
      H    7    0.11942      0.00000     0.38001    0.00058     0.38058
      H    8    0.11121      0.00000     0.38822    0.00057     0.38879
      H    9    0.21687      0.00000     0.28236    0.00077     0.28313
      H   10    0.11966      0.00000     0.37959    0.00075     0.38034
      H   11    0.11628      0.00000     0.38291    0.00081     0.38372
      C   12   -0.31942      0.99969     2.31668    0.00306     3.31942
      C   13    0.05943      0.99955     1.93211    0.00891     2.94057
      N   14   -0.23696      0.99968     2.72756    0.00971     3.73696
      C   15   -0.03308      0.99946     2.02431    0.00931     3.03308
      C   16    0.11534      0.99968     1.87448    0.01049     2.88466
      N   17   -0.19053      0.99970     2.66754    0.02329     3.69053
      H   18    0.11330      0.00000     0.38607    0.00063     0.38670
      H   19    0.11990      0.00000     0.37965    0.00045     0.38010
      H   20    0.21893      0.00000     0.28031    0.00076     0.28107
      H   21    0.11964      0.00000     0.37955    0.00081     0.38036
      H   22    0.11561      0.00000     0.38359    0.00080     0.38439
      C   23   -0.11143      0.99950     2.10386    0.00807     3.11143
      C   24   -0.12007      0.99948     2.11265    0.00795     3.12007
      C   25   -0.11307      0.99948     2.10566    0.00793     3.11307
      C   26   -0.13098      0.99949     2.12368    0.00780     3.13098
      C   27    0.07958      0.99951     1.91091    0.01001     2.92042
      C   28   -0.00124      0.99947     1.99263    0.00915     3.00124
      C   29   -0.01002      0.99947     2.00251    0.00805     3.01002
      C   30    0.08171      0.99951     1.90829    0.01049     2.91829
      C   31   -0.32373      0.99970     2.32000    0.00403     3.32373
      C   32   -0.21980      0.99968     2.21226    0.00786     3.21980
      C   33   -0.25446      0.99964     2.24639    0.00844     3.25446
      C   34    0.38631      0.99975     1.59628    0.01765     2.61369
      O   35   -0.27959      0.99989     3.26797    0.01173     4.27959
      O   36   -0.34137      0.99979     3.32672    0.01487     4.34137
      C   37    0.08104      0.99951     1.90930    0.01015     2.91896
      C   38   -0.00043      0.99946     1.99248    0.00850     3.00043
      C   39   -0.03155      0.99944     2.02183    0.01027     3.03155
      C   40    0.08473      0.99951     1.90573    0.01004     2.91527
      C   41   -0.32630      0.99971     2.32034    0.00626     3.32630
      C   42   -0.10438      0.99956     2.09547    0.00935     3.10438
      C   43   -0.18555      0.99956     2.17719    0.00880     3.18555
      C   44    0.07721      0.99951     1.91304    0.01024     2.92279
      C   45    0.00486      0.99946     1.98740    0.00828     2.99514
      C   46   -0.04401      0.99943     2.03452    0.01006     3.04401
      C   47    0.07764      0.99951     1.91240    0.01045     2.92236
      C   48   -0.32602      0.99971     2.31981    0.00650     3.32602
      C   49   -0.10849      0.99960     2.10009    0.00881     3.10849
      C   50   -0.18066      0.99962     2.17324    0.00779     3.18066
      C   51    0.07708      0.99952     1.91283    0.01057     2.92292
      C   52   -0.01019      0.99948     2.00262    0.00810     3.01019
      C   53   -0.00769      0.99946     1.99906    0.00916     3.00769
      C   54    0.08076      0.99952     1.90968    0.01005     2.91924
      C   55   -0.32515      0.99971     2.31895    0.00648     3.32515
      C   56   -0.21249      0.99967     2.20595    0.00687     3.21249
      C   57   -0.25229      0.99965     2.24376    0.00888     3.25229
      C   58    0.38172      0.99974     1.60093    0.01761     2.61828
      O   59   -0.32261      0.99980     3.30757    0.01525     4.32261
      O   60   -0.28248      0.99989     3.27058    0.01201     4.28248
      N   61   -0.21520      0.99966     2.69201    0.02353     3.71520
      N   62   -0.20591      0.99967     2.68330    0.02294     3.70591
      N   63   -0.21607      0.99967     2.69303    0.02337     3.71607
      N   64   -0.21109      0.99966     2.68777    0.02366     3.71109
     Fe   65    0.74670      8.99571     3.23380    0.02379    12.25330
      H   66    0.11940      0.00000     0.37932    0.00128     0.38060
      H   67    0.11821      0.00000     0.38064    0.00115     0.38179
      H   68    0.11989      0.00000     0.37895    0.00116     0.38011
      H   69    0.10723      0.00000     0.39182    0.00095     0.39277
      H   70    0.10399      0.00000     0.39511    0.00090     0.39601
      H   71    0.11368      0.00000     0.38522    0.00111     0.38632
      H   72    0.11809      0.00000     0.38121    0.00069     0.38191
      H   73    0.11063      0.00000     0.38884    0.00052     0.38937
      H   74    0.11701      0.00000     0.38230    0.00070     0.38299
      H   75    0.11181      0.00000     0.38739    0.00080     0.38819
      H   76    0.12640      0.00000     0.37285    0.00075     0.37360
      H   77    0.11963      0.00000     0.37969    0.00069     0.38037
      H   78    0.10699      0.00000     0.39233    0.00067     0.39301
      H   79    0.11084      0.00000     0.38851    0.00065     0.38916
      H   80    0.12398      0.00000     0.37534    0.00068     0.37602
      H   81    0.11547      0.00000     0.38388    0.00065     0.38453
      H   82    0.10352      0.00000     0.39546    0.00101     0.39648
      H   83    0.10385      0.00000     0.39552    0.00062     0.39615
      H   84    0.11581      0.00000     0.38348    0.00071     0.38419
      H   85    0.12218      0.00000     0.37712    0.00071     0.37782
      H   86    0.11173      0.00000     0.38773    0.00054     0.38827
      H   87    0.10032      0.00000     0.39893    0.00076     0.39968
      H   88    0.10599      0.00000     0.39336    0.00064     0.39401
      H   89    0.11526      0.00000     0.38404    0.00070     0.38474
      H   90    0.11828      0.00000     0.38109    0.00063     0.38172
      H   91    0.11142      0.00000     0.38809    0.00049     0.38858
      H   92    0.10502      0.00000     0.39409    0.00089     0.39498
      H   93    0.12084      0.00000     0.37825    0.00091     0.37916
      H   94    0.11957      0.00000     0.37972    0.00072     0.38043
      H   95    0.09779      0.00000     0.40131    0.00090     0.40221
      H   96    0.11576      0.00000     0.38359    0.00065     0.38424
      H   97    0.12021      0.00000     0.37926    0.00053     0.37979
      H   98    0.25464      0.00000     0.24428    0.00108     0.24536
      H   99    0.26178      0.00000     0.23710    0.00112     0.23822
 =======================================================================
   * Total *    1.00000     62.97424   140.38138    0.64438   204.00000

 Normal termination of Gaussian 16 at Mon Feb  6 16:33:29 2023.
