 Gaussian 16, Revision A.03,
 Gaussian 16:  AM64L-G16RevA.03 25-Dec-2016

 ----------------------------------------------------------------------
 # PBE1PBE/def2TZVP guess=read scf=qc empiricaldispersion=GD3BJ scf=max
 cycle=999 geom=check pop=nbo
 ----------------------------------------------------------------------

 ---------
 1b5a_II_Q
 ---------
 Structure from the checkpoint file:  "1b5a_II_Qn.chk"
 Charge =  0 Multiplicity = 5

                         Standard orientation:
 ---------------------------------------------------------------------
 Center     Atomic      Atomic             Coordinates (Angstroms)
 Number     Number       Type             X           Y           Z
 ---------------------------------------------------------------------
      1          6           0        1.822459   -0.204196   -5.160051
      2          6           0        1.443312    0.269498   -3.778031
      3          7           0        1.622745    1.575295   -3.357622
      4          6           0        0.890149   -0.401502   -2.726746
      5          6           0        1.195310    1.675088   -2.106875
      6          7           0        0.742509    0.448659   -1.717684
      7          1           0        2.525157   -1.007285   -5.081534
      8          1           0        2.263669    0.603743   -5.705459
      9          1           0        2.010057    2.318583   -3.903656
     10          1           0        0.617061   -1.456716   -2.717567
     11          1           0        1.204513    2.578232   -1.496990
     12          6           0       -1.359905   -2.535927    4.714293
     13          6           0       -0.603859   -1.624691    3.777790
     14          7           0        0.140067   -0.544517    4.219724
     15          6           0       -0.485706   -1.642705    2.418882
     16          6           0        0.677941    0.052612    3.166584
     17          7           0        0.288196   -0.629105    2.051133
     18          1           0       -0.854456   -2.577898    5.656450
     19          1           0       -1.410605   -3.518052    4.292677
     20          1           0        0.254065   -0.263689    5.172681
     21          1           0       -0.948483   -2.367714    1.749327
     22          1           0        1.318658    0.933440    3.186871
     23          6           0       -2.405893    0.735873    0.123793
     24          6           0       -0.016447   -3.323287   -0.689450
     25          6           0        4.106264   -0.995989    0.113382
     26          6           0        1.716236    3.060879    0.927265
     27          6           0       -2.137435   -0.529901   -0.163961
     28          6           0       -3.117312   -1.568038   -0.467938
     29          6           0       -2.437829   -2.703497   -0.701899
     30          6           0       -1.045652   -2.398374   -0.545654
     31          6           0       -3.064250   -4.052640   -1.020718
     32          6           0       -4.599460   -1.658239    0.041989
     33          6           0       -5.715795   -2.363684   -0.763180
     34          6           0       -6.869633   -2.843749    0.107943
     35          8           0       -7.858649   -3.387439   -0.443014
     36          8           0       -6.796173   -2.697599    1.354317
     37          6           0        1.321012   -3.031400   -0.527142
     38          6           0        2.375999   -4.015005   -0.704604
     39          6           0        3.532583   -3.370862   -0.480903
     40          6           0        3.214530   -1.973773   -0.183521
     41          6           0        2.240927   -5.489719   -1.045917
     42          6           0        4.911631   -3.982340   -0.536275
     43          6           0        5.320496   -5.029398   -1.014908
     44          6           0        3.829922    0.298084    0.396885
     45          6           0        4.817221    1.305557    0.707160
     46          6           0        4.122439    2.484760    0.919828
     47          6           0        2.733518    2.170553    0.777756
     48          6           0        6.304387    1.181331    0.760475
     49          6           0        4.762420    3.791613    1.257321
     50          6           0        5.727804    4.204173    0.926562
     51          6           0        0.374573    2.794447    0.777300
     52          6           0       -0.714566    3.777468    0.941985
     53          6           0       -1.832685    3.107377    0.716520
     54          6           0       -1.507326    1.735563    0.408472
     55          6           0       -0.540910    5.226161    1.282942
     56          6           0       -3.351383    3.598882    0.481113
     57          6           0       -3.611216    3.819734   -1.029503
     58          6           0       -3.972645    5.274625   -1.330147
     59          8           0       -5.113556    5.705784   -1.484092
     60          8           0       -2.870216    5.914998   -1.692564
     61          7           0       -0.889982   -1.085706   -0.200333
     62          7           0        1.853214   -1.819593   -0.207534
     63          7           0        2.576913    0.840156    0.441536
     64          7           0       -0.169585    1.566680    0.452184
     65         26           0        0.838423   -0.138846    0.128005
     66          1           0       -0.309675   -4.294157   -1.062144
     67          1           0        5.177062   -1.246659    0.076607
     68          1           0        1.957221    4.090901    1.198743
     69          1           0        5.643716   -3.130823   -0.231767
     70          1           0        3.868538    4.402019    1.874220
     71          1           0       -3.472744    1.062189    0.135051
     72          1           0       -3.246367   -4.260828   -2.000365
     73          1           0       -3.888304   -4.392661   -0.314396
     74          1           0       -2.242975   -4.996520   -0.678947
     75          1           0       -4.962131   -0.655746    0.354509
     76          1           0       -4.679302   -2.427191    0.839252
     77          1           0       -5.297903   -3.249986   -1.286053
     78          1           0       -6.125789   -1.670720   -1.528707
     79          1           0        2.265324   -5.551736   -2.400622
     80          1           0        1.158365   -5.749867   -0.977269
     81          1           0        2.898576   -6.080535   -0.782023
     82          1           0        6.350528   -5.388855   -0.872010
     83          1           0        4.670084   -5.617532   -1.677093
     84          1           0        6.773674    1.188750    0.097314
     85          1           0        6.332422   -0.030064    1.364923
     86          1           0        6.572472    1.683790    1.823549
     87          1           0        5.994939    5.247807    1.143958
     88          1           0        6.475707    3.589534    0.404204
     89          1           0       -0.194960    5.640086   -0.059864
     90          1           0        0.034334    5.434738    1.727007
     91          1           0       -1.616944    5.694819    1.048731
     92          1           0       -3.630646    4.530018    1.021616
     93          1           0       -4.031919    2.800099    0.845086
     94          1           0       -4.418121    3.138938   -1.382727
     95          1           0       -2.713539    3.557725   -1.624975
     96          1           0        0.947337   -0.544855   -5.672898
     97          1           0       -2.350524   -2.157697    4.857526
     98          1           0       -5.830098    5.373030   -0.938710
     99          1           0       -7.234151   -3.321882    1.937451
 ---------------------------------------------------------------------

 SCF Done:  E(UPBE1PBE) =  -3627.05465496     a.u. after   37 cycles

 Alpha virt. eigenvalues --    1.14671   1.14730   1.14971   1.15252   1.15619
 Alpha virt. eigenvalues --    1.15827   1.16173   1.16458   1.16585   1.17325
 Alpha virt. eigenvalues --    1.17609   1.17797   1.18070   1.18532   1.18939

  Beta  occ. eigenvalues -- -256.33309 -30.06267 -25.89873 -25.89291 -25.89186
  Beta  occ. eigenvalues --  -19.29137 -19.27172 -19.17587 -19.17067 -14.45038
  Beta  occ. eigenvalues --  -14.44678 -14.37539 -14.37086 -14.35532 -14.35264
  Beta  occ. eigenvalues --  -14.34834 -14.34539 -10.36068 -10.35608 -10.28114
  Beta  occ. eigenvalues --  -10.27549 -10.25708 -10.25443 -10.24679 -10.23918
  Beta  occ. eigenvalues --  -10.23864 -10.23805 -10.23753 -10.23542 -10.23471
  Beta  occ. eigenvalues --  -10.23391 -10.23380 -10.23379 -10.23315 -10.23289
  Beta  occ. eigenvalues --  -10.23256 -10.22922 -10.22882 -10.22793 -10.22457
  Beta  occ. eigenvalues --  -10.22409 -10.22011 -10.21858 -10.21768 -10.21685
  Beta  occ. eigenvalues --  -10.21570 -10.21544 -10.21393 -10.21294 -10.21237
  Beta  occ. eigenvalues --  -10.21128 -10.21104 -10.20850 -10.20842 -10.20439
  Beta  occ. eigenvalues --  -10.20305 -10.20098 -10.19270 -10.17981  -3.36882
  Beta  occ. eigenvalues --   -2.11688  -2.11595  -2.11398  -1.19218  -1.17399
  Beta  occ. eigenvalues --   -1.05969  -1.05662  -1.02082  -0.99292  -0.97540
  Beta  occ. eigenvalues --   -0.96518  -0.96392  -0.95357  -0.90948  -0.90830
  Beta  occ. eigenvalues --   -0.85267  -0.83388  -0.83031  -0.82706  -0.82288
  Beta  occ. eigenvalues --   -0.80955  -0.80727  -0.80507  -0.80343  -0.79165
  Beta  occ. eigenvalues --   -0.78563  -0.78407  -0.77346  -0.75110  -0.73869
  Beta  occ. eigenvalues --   -0.72613  -0.71984  -0.71907  -0.71602  -0.71264
  Beta  occ. eigenvalues --   -0.71189  -0.69715  -0.69245  -0.66275  -0.65616
  Beta  occ. eigenvalues --   -0.65255  -0.65077  -0.64783  -0.64045  -0.61562
  Beta  occ. eigenvalues --   -0.61280  -0.59977  -0.59076  -0.58982  -0.56963
  Beta  occ. eigenvalues --   -0.56080  -0.56029  -0.55935  -0.54428  -0.54382
  Beta  occ. eigenvalues --   -0.53902  -0.53276  -0.52356  -0.52118  -0.51598
  Beta  occ. eigenvalues --   -0.51407  -0.51041  -0.50095  -0.49617  -0.49602
  Beta  occ. eigenvalues --   -0.49120  -0.48985  -0.48405  -0.48068  -0.47722
  Beta  occ. eigenvalues --   -0.47633  -0.47538  -0.47167  -0.46191  -0.45787
  Beta  occ. eigenvalues --   -0.45384  -0.45148  -0.44993  -0.44921  -0.44580
  Beta  occ. eigenvalues --   -0.44068  -0.43783  -0.43617  -0.43399  -0.43219
  Beta  occ. eigenvalues --   -0.43043  -0.42905  -0.42869  -0.42741  -0.42599
  Beta  occ. eigenvalues --   -0.42314  -0.41989  -0.41849  -0.41815  -0.40814
  Beta  occ. eigenvalues --   -0.40596  -0.40350  -0.39639  -0.39549  -0.39401
  Beta  occ. eigenvalues --   -0.38834  -0.38541  -0.38457  -0.37854  -0.37431
  Beta  occ. eigenvalues --   -0.37268  -0.36953  -0.36302  -0.36039  -0.35949
  Beta  occ. eigenvalues --   -0.35587  -0.35166  -0.35015  -0.34357  -0.33846
  Beta  occ. eigenvalues --   -0.33668  -0.33246  -0.33160  -0.32597  -0.32478
  Beta  occ. eigenvalues --   -0.32226  -0.31971  -0.31771  -0.31354  -0.30988
  Beta  occ. eigenvalues --   -0.30904  -0.29831  -0.29689  -0.28903  -0.28526
  Beta  occ. eigenvalues --   -0.27815  -0.27619  -0.27143  -0.25778  -0.24150
  Beta  occ. eigenvalues --   -0.23764  -0.23274  -0.22897  -0.22441  -0.21941
  Beta  occ. eigenvalues --   -0.18780  -0.18473  -0.12639
  Beta virt. eigenvalues --   -0.07225  -0.05173  -0.01646  -0.01281  -0.00536
  Beta virt. eigenvalues --   -0.00251  -0.00187   0.00406   0.01489   0.01952
  Beta virt. eigenvalues --    0.02303   0.02585   0.02852   0.02973   0.03265

 Mulliken charges and spin densities:
               1          2
     1  C   -0.363325   0.001221
     2  C    0.085418   0.006246
     3  N   -0.198990   0.001321
     4  C   -0.151350   0.001945
     5  C   -0.013321   0.002238
     6  N   -0.029968   0.043676
     7  H    0.150351   0.000041
     8  H    0.114652   0.000143
     9  H    0.231570   0.001843
    10  H    0.160008   0.002110
    11  H    0.200327   0.001316
    12  C   -0.379409   0.000858
    13  C    0.098720   0.007597
    14  N   -0.205404  -0.000489
    15  C   -0.121232  -0.002296
    16  C   -0.017626  -0.009458
    17  N   -0.033122   0.029991
    18  H    0.122493   0.000164
    19  H    0.147655   0.000014
    20  H    0.229509   0.001803
    21  H    0.143291   0.001867
    22  H    0.170344   0.001761
    23  C   -0.464736  -0.104064
    24  C   -0.552384   0.020817
    25  C   -0.508571  -0.077976
    26  C   -0.593526   0.026628
    27  C    0.290145   0.048745
    28  C   -0.060061  -0.058716
    29  C    0.006658   0.054468
    30  C    0.131276  -0.063880
    31  C   -0.500758  -0.003033
    32  C   -0.259217   0.008282
    33  C   -0.234160  -0.001776
    34  C    0.282053   0.000158
    35  O   -0.377288   0.000052
    36  O   -0.331642  -0.000067
    37  C    0.220685  -0.069258
    38  C    0.025814   0.036695
    39  C    0.029959  -0.047676
    40  C    0.263462   0.035676
    41  C   -0.522666  -0.002572
    42  C   -0.185358   0.017249
    43  C   -0.303272  -0.023582
    44  C    0.312591   0.037388
    45  C   -0.068924  -0.054303
    46  C    0.057792   0.049349
    47  C    0.312293  -0.062898
    48  C   -0.502065   0.005896
    49  C   -0.211686  -0.004026
    50  C   -0.245350   0.006134
    51  C    0.139547  -0.066831
    52  C   -0.000810   0.028752
    53  C   -0.107171  -0.029558
    54  C    0.329267   0.035736
    55  C   -0.500780  -0.001688
    56  C   -0.271444   0.004618
    57  C   -0.215057  -0.001668
    58  C    0.287473   0.000105
    59  O   -0.261848  -0.000055
    60  O   -0.421029  -0.000057
    61  N   -0.029419   0.026562
    62  N    0.000849   0.023726
    63  N   -0.047882   0.036640
    64  N   -0.016277   0.033713
    65  Fe  -0.078277   4.034814
    66  H    0.105532  -0.000902
    67  H    0.105926   0.003651
    68  H    0.093702  -0.001614
    69  H    0.088591  -0.001404
    70  H    0.075490   0.000529
    71  H    0.063904   0.004725
    72  H    0.178190   0.001389
    73  H    0.147039   0.001467
    74  H    0.111556   0.000774
    75  H    0.108637  -0.000339
    76  H    0.117872  -0.004121
    77  H    0.158452   0.000127
    78  H    0.124859  -0.000332
    79  H    0.107478   0.003633
    80  H    0.152621   0.000371
    81  H    0.188880   0.000632
    82  H    0.122905   0.001548
    83  H    0.130641   0.001191
    84  H    0.167275  -0.000548
    85  H    0.101713  -0.004728
    86  H    0.182133  -0.001191
    87  H    0.115302  -0.000349
    88  H    0.130721  -0.000312
    89  H    0.118689   0.003430
    90  H    0.169993  -0.000455
    91  H    0.170974   0.000928
    92  H    0.128307   0.000208
    93  H    0.124556  -0.000908
    94  H    0.111598  -0.000020
    95  H    0.154347   0.000136
    96  H    0.144394   0.000010
    97  H    0.142055   0.000182
    98  H    0.350581  -0.000039
    99  H    0.346294  -0.000105
 Sum of Mulliken charges =   0.00000   4.00000

 Dipole moment (field-independent basis, Debye):
    X=             -0.8376    Y=             -0.1624    Z=              4.1528  Tot=              4.2395
 Quadrupole moment (field-independent basis, Debye-Ang):
   XX=           -328.6240   YY=           -345.8240   ZZ=           -284.6276
   XY=             -7.2154   XZ=            -30.4951   YZ=             -1.5062

 Summary of Natural Population Analysis:

                                       Natural Population
                Natural  -----------------------------------------------
    Atom  No    Charge         Core      Valence    Rydberg      Total
 -----------------------------------------------------------------------
      C    1   -0.31888      0.99970     2.31577    0.00340     3.31888
      C    2    0.05006      0.99955     1.94112    0.00927     2.94994
      N    3   -0.23436      0.99968     2.72504    0.00964     3.73436
      C    4   -0.02498      0.99942     2.01535    0.01020     3.02498
      C    5    0.09063      0.99965     1.89775    0.01197     2.90937
      N    6   -0.17104      0.99968     2.64754    0.02382     3.67104
      H    7    0.11521      0.00000     0.38411    0.00068     0.38479
      H    8    0.10652      0.00000     0.39288    0.00060     0.39348
      H    9    0.20895      0.00000     0.29018    0.00087     0.29105
      H   10    0.11942      0.00000     0.37990    0.00068     0.38058
      H   11    0.12104      0.00000     0.37816    0.00080     0.37896
      C   12   -0.31859      0.99970     2.31552    0.00337     3.31859
      C   13    0.04910      0.99955     1.94206    0.00930     2.95090
      N   14   -0.23692      0.99968     2.72756    0.00967     3.73692
      C   15   -0.02498      0.99943     2.01547    0.01009     3.02498
      C   16    0.08401      0.99966     1.90474    0.01158     2.91599
      N   17   -0.16994      0.99972     2.64563    0.02458     3.66994
      H   18    0.10700      0.00000     0.39231    0.00070     0.39300
      H   19    0.11645      0.00000     0.38300    0.00055     0.38355
      H   20    0.20757      0.00000     0.29155    0.00088     0.29243
      H   21    0.12074      0.00000     0.37837    0.00089     0.37926
      H   22    0.11516      0.00000     0.38410    0.00074     0.38484
      C   23   -0.16304      0.99938     2.15412    0.00953     3.16304
      C   24   -0.11717      0.99946     2.10956    0.00815     3.11717
      C   25   -0.15181      0.99941     2.14376    0.00865     3.15181
      C   26   -0.11032      0.99943     2.10262    0.00826     3.11032
      C   27    0.09461      0.99943     1.89460    0.01136     2.90539
      C   28   -0.04641      0.99932     2.03688    0.01021     3.04641
      C   29   -0.00478      0.99936     1.99570    0.00972     3.00478
      C   30    0.03237      0.99950     1.95675    0.01139     2.96763
      C   31   -0.31315      0.99968     2.30826    0.00521     3.31315
      C   32   -0.21351      0.99968     2.20605    0.00777     3.21351
      C   33   -0.25592      0.99964     2.24789    0.00839     3.25592
      C   34    0.37852      0.99976     1.60345    0.01826     2.62148
      O   35   -0.30415      0.99990     3.29226    0.01199     4.30415
      O   36   -0.32923      0.99981     3.31592    0.01350     4.32923
      C   37    0.03589      0.99950     1.95427    0.01034     2.96411
      C   38    0.00563      0.99938     1.98560    0.00939     2.99437
      C   39   -0.06920      0.99938     2.06008    0.00975     3.06920
      C   40    0.10575      0.99950     1.88455    0.01021     2.89425
      C   41   -0.27860      0.99957     2.27308    0.00594     3.27860
      C   42   -0.08992      0.99928     2.07928    0.01135     3.08992
      C   43   -0.21498      0.99927     2.20523    0.01049     3.21498
      C   44    0.08601      0.99946     1.90285    0.01168     2.91399
      C   45   -0.04788      0.99947     2.03905    0.00936     3.04788
      C   46   -0.01493      0.99943     2.00565    0.00986     3.01493
      C   47    0.02576      0.99946     1.96343    0.01134     2.97424
      C   48   -0.24090      0.99934     2.23339    0.00817     3.24090
      C   49   -0.08722      0.99870     2.07396    0.01456     3.08722
      C   50   -0.19129      0.99870     2.18056    0.01203     3.19129
      C   51    0.02867      0.99952     1.96115    0.01066     2.97133
      C   52   -0.01470      0.99933     2.00561    0.00976     3.01470
      C   53   -0.04176      0.99929     2.03230    0.01017     3.04176
      C   54    0.09643      0.99950     1.89312    0.01096     2.90357
      C   55   -0.20448      0.99911     2.19698    0.00839     3.20448
      C   56   -0.20926      0.99969     2.20229    0.00728     3.20926
      C   57   -0.26010      0.99965     2.25155    0.00890     3.26010
      C   58    0.37396      0.99973     1.60817    0.01814     2.62604
      O   59   -0.30794      0.99978     3.29138    0.01678     4.30794
      O   60   -0.30590      0.99992     3.30050    0.00547     4.30590
      N   61   -0.18859      0.99970     2.66738    0.02151     3.68859
      N   62   -0.18663      0.99970     2.66732    0.01960     3.68663
      N   63   -0.18148      0.99972     2.65923    0.02252     3.68148
      N   64   -0.18263      0.99970     2.66287    0.02006     3.68263
     Fe   65    2.16869      8.99455     1.79698    0.03978    10.83131
      H   66    0.10961      0.00000     0.38920    0.00119     0.39039
      H   67    0.11071      0.00000     0.38835    0.00094     0.38929
      H   68    0.11055      0.00000     0.38842    0.00103     0.38945
      H   69    0.09535      0.00000     0.40374    0.00090     0.40465
      H   70    0.08618      0.00000     0.41279    0.00103     0.41382
      H   71    0.10455      0.00000     0.39371    0.00174     0.39545
      H   72    0.11029      0.00000     0.38896    0.00075     0.38971
      H   73    0.11106      0.00000     0.38790    0.00105     0.38894
      H   74    0.09895      0.00000     0.40048    0.00057     0.40105
      H   75    0.10898      0.00000     0.39032    0.00069     0.39102
      H   76    0.10904      0.00000     0.38952    0.00144     0.39096
      H   77    0.12813      0.00000     0.37112    0.00075     0.37187
      H   78    0.11834      0.00000     0.38091    0.00074     0.38166
      H   79    0.08891      0.00000     0.41030    0.00080     0.41109
      H   80    0.11148      0.00000     0.38774    0.00078     0.38852
      H   81    0.09464      0.00000     0.40434    0.00102     0.40536
      H   82    0.10347      0.00000     0.39567    0.00086     0.39653
      H   83    0.09895      0.00000     0.39996    0.00109     0.40105
      H   84    0.05138      0.00000     0.44528    0.00334     0.44862
      H   85    0.08655      0.00000     0.41245    0.00099     0.41345
      H   86    0.11655      0.00000     0.38241    0.00104     0.38345
      H   87    0.10331      0.00000     0.39563    0.00106     0.39669
      H   88    0.10130      0.00000     0.39751    0.00120     0.39870
      H   89    0.09028      0.00000     0.40883    0.00088     0.40972
      H   90    0.02748      0.00000     0.46883    0.00369     0.47252
      H   91    0.12281      0.00000     0.37608    0.00111     0.37719
      H   92    0.10728      0.00000     0.39187    0.00085     0.39272
      H   93    0.10823      0.00000     0.39101    0.00075     0.39177
      H   94    0.10205      0.00000     0.39715    0.00080     0.39795
      H   95    0.13256      0.00000     0.36679    0.00066     0.36744
      H   96    0.11356      0.00000     0.38573    0.00071     0.38644
      H   97    0.11016      0.00000     0.38901    0.00083     0.38984
      H   98    0.25335      0.00000     0.24564    0.00101     0.24665
      H   99    0.25737      0.00000     0.24110    0.00152     0.24263
 =======================================================================
   * Total *    2.00000     62.96851   139.33253    0.69897   203.00000

 Normal termination of Gaussian 16 at Mon Mar 13 03:55:51 2023.
