 Gaussian 16, Revision A.03,
 Gaussian 16:  AM64L-G16RevA.03 25-Dec-2016

 ---------------------------------------------------------------------
 # polar def2tzvp empiricaldispersion=gd3bj int=grid=ultrafine pbe1pbe
 ---------------------------------------------------------------------

 ---------
 1b5a_II_S
 ---------
 Symbolic Z-matrix:
 Charge =  0 Multiplicity = 1

                         Standard orientation:
 ---------------------------------------------------------------------
 Center     Atomic      Atomic             Coordinates (Angstroms)
 Number     Number       Type             X           Y           Z
 ---------------------------------------------------------------------
      1          6           0        1.822459   -0.204196   -5.160051
      2          6           0        1.443312    0.269498   -3.778031
      3          7           0        1.622745    1.575295   -3.357622
      4          6           0        0.890149   -0.401502   -2.726746
      5          6           0        1.195310    1.675088   -2.106875
      6          7           0        0.742509    0.448659   -1.717684
      7          1           0        2.525157   -1.007285   -5.081534
      8          1           0        2.263669    0.603743   -5.705459
      9          1           0        2.010057    2.318583   -3.903656
     10          1           0        0.617061   -1.456716   -2.717567
     11          1           0        1.204513    2.578232   -1.496990
     12          6           0       -1.359905   -2.535927    4.714293
     13          6           0       -0.603859   -1.624691    3.777790
     14          7           0        0.140067   -0.544517    4.219724
     15          6           0       -0.485706   -1.642705    2.418882
     16          6           0        0.677941    0.052612    3.166584
     17          7           0        0.288196   -0.629105    2.051133
     18          1           0       -0.854456   -2.577898    5.656450
     19          1           0       -1.410605   -3.518052    4.292677
     20          1           0        0.254065   -0.263689    5.172681
     21          1           0       -0.948483   -2.367714    1.749327
     22          1           0        1.318658    0.933440    3.186871
     23          6           0       -2.405893    0.735873    0.123793
     24          6           0       -0.016447   -3.323287   -0.689450
     25          6           0        4.106264   -0.995989    0.113382
     26          6           0        1.716236    3.060879    0.927265
     27          6           0       -2.137435   -0.529901   -0.163961
     28          6           0       -3.117312   -1.568038   -0.467938
     29          6           0       -2.437829   -2.703497   -0.701899
     30          6           0       -1.045652   -2.398374   -0.545654
     31          6           0       -3.064250   -4.052640   -1.020718
     32          6           0       -4.599460   -1.658239    0.041989
     33          6           0       -5.715795   -2.363684   -0.763180
     34          6           0       -6.869633   -2.843749    0.107943
     35          8           0       -7.858649   -3.387439   -0.443014
     36          8           0       -6.796173   -2.697599    1.354317
     37          6           0        1.321012   -3.031400   -0.527142
     38          6           0        2.375999   -4.015005   -0.704604
     39          6           0        3.532583   -3.370862   -0.480903
     40          6           0        3.214530   -1.973773   -0.183521
     41          6           0        2.240927   -5.489719   -1.045917
     42          6           0        4.911631   -3.982340   -0.536275
     43          6           0        5.320496   -5.029398   -1.014908
     44          6           0        3.829922    0.298084    0.396885
     45          6           0        4.817221    1.305557    0.707160
     46          6           0        4.122439    2.484760    0.919828
     47          6           0        2.733518    2.170553    0.777756
     48          6           0        6.304387    1.181331    0.760475
     49          6           0        4.762420    3.791613    1.257321
     50          6           0        5.727804    4.204173    0.926562
     51          6           0        0.374573    2.794447    0.777300
     52          6           0       -0.714566    3.777468    0.941985
     53          6           0       -1.832685    3.107377    0.716520
     54          6           0       -1.507326    1.735563    0.408472
     55          6           0       -0.540910    5.226161    1.282942
     56          6           0       -3.351383    3.598882    0.481113
     57          6           0       -3.611216    3.819734   -1.029503
     58          6           0       -3.972645    5.274625   -1.330147
     59          8           0       -5.113556    5.705784   -1.484092
     60          8           0       -2.870216    5.914998   -1.692564
     61          7           0       -0.889982   -1.085706   -0.200333
     62          7           0        1.853214   -1.819593   -0.207534
     63          7           0        2.576913    0.840156    0.441536
     64          7           0       -0.169585    1.566680    0.452184
     65         26           0        0.838423   -0.138846    0.128005
     66          1           0       -0.309675   -4.294157   -1.062144
     67          1           0        5.177062   -1.246659    0.076607
     68          1           0        1.957221    4.090901    1.198743
     69          1           0        5.643716   -3.130823   -0.231767
     70          1           0        3.868538    4.402019    1.874220
     71          1           0       -3.472744    1.062189    0.135051
     72          1           0       -3.246367   -4.260828   -2.000365
     73          1           0       -3.888304   -4.392661   -0.314396
     74          1           0       -2.242975   -4.996520   -0.678947
     75          1           0       -4.962131   -0.655746    0.354509
     76          1           0       -4.679302   -2.427191    0.839252
     77          1           0       -5.297903   -3.249986   -1.286053
     78          1           0       -6.125789   -1.670720   -1.528707
     79          1           0        2.265324   -5.551736   -2.400622
     80          1           0        1.158365   -5.749867   -0.977269
     81          1           0        2.898576   -6.080535   -0.782023
     82          1           0        6.350528   -5.388855   -0.872010
     83          1           0        4.670084   -5.617532   -1.677093
     84          1           0        6.773674    1.188750    0.097314
     85          1           0        6.332422   -0.030064    1.364923
     86          1           0        6.572472    1.683790    1.823549
     87          1           0        5.994939    5.247807    1.143958
     88          1           0        6.475707    3.589534    0.404204
     89          1           0       -0.194960    5.640086   -0.059864
     90          1           0        0.034334    5.434738    1.727007
     91          1           0       -1.616944    5.694819    1.048731
     92          1           0       -3.630646    4.530018    1.021616
     93          1           0       -4.031919    2.800099    0.845086
     94          1           0       -4.418121    3.138938   -1.382727
     95          1           0       -2.713539    3.557725   -1.624975
     96          1           0        0.947337   -0.544855   -5.672898
     97          1           0       -2.350524   -2.157697    4.857526
     98          1           0       -5.830098    5.373030   -0.938710
     99          1           0       -7.234151   -3.321882    1.937451
 ---------------------------------------------------------------------

 SCF Done:  E(RPBE1PBE) =  -3627.08534215     A.U. after   22 cycles

 The electronic state is 1-A.
 Alpha  occ. eigenvalues -- -256.29721 -30.06711 -25.89484 -25.89191 -25.89114
 Alpha  occ. eigenvalues --  -19.29184 -19.27234 -19.17650 -19.17114 -14.44754
 Alpha  occ. eigenvalues --  -14.44636 -14.38160 -14.37947 -14.36415 -14.36082
 Alpha  occ. eigenvalues --  -14.36062 -14.35890 -10.36120 -10.35678 -10.27745
 Alpha  occ. eigenvalues --  -10.27519 -10.25491 -10.25318 -10.24773 -10.24010
 Alpha  occ. eigenvalues --  -10.23880 -10.23793 -10.23647 -10.23627 -10.23567
 Alpha  occ. eigenvalues --  -10.23515 -10.23473 -10.23369 -10.23298 -10.23143
 Alpha  occ. eigenvalues --  -10.22911 -10.22804 -10.22650 -10.22619 -10.22415
 Alpha  occ. eigenvalues --  -10.22411 -10.22020 -10.21915 -10.21890 -10.21759
 Alpha  occ. eigenvalues --  -10.21575 -10.21504 -10.21493 -10.21441 -10.21349
 Alpha  occ. eigenvalues --  -10.21071 -10.20967 -10.20955 -10.20949 -10.20657
 Alpha  occ. eigenvalues --  -10.20410 -10.20349 -10.19384 -10.17865  -3.41224
 Alpha  occ. eigenvalues --   -2.17133  -2.16602  -2.16479  -1.19265  -1.17461
 Alpha  occ. eigenvalues --   -1.05755  -1.05637  -1.02144  -0.99339  -0.97596
 Alpha  occ. eigenvalues --   -0.96554  -0.96469  -0.95407  -0.90802  -0.90720
 Alpha  occ. eigenvalues --   -0.85178  -0.83353  -0.83111  -0.82740  -0.82334
 Alpha  occ. eigenvalues --   -0.80944  -0.80546  -0.80503  -0.80287  -0.79183
 Alpha  occ. eigenvalues --   -0.78602  -0.78419  -0.77364  -0.75144  -0.73864
 Alpha  occ. eigenvalues --   -0.72623  -0.71949  -0.71732  -0.71540  -0.71294
 Alpha  occ. eigenvalues --   -0.71165  -0.69767  -0.69245  -0.66325  -0.65606
 Alpha  occ. eigenvalues --   -0.65066  -0.64964  -0.64811  -0.64102  -0.61326
 Alpha  occ. eigenvalues --   -0.61185  -0.59949  -0.59085  -0.58918  -0.57006
 Alpha  occ. eigenvalues --   -0.56081  -0.55857  -0.55752  -0.54446  -0.54352
 Alpha  occ. eigenvalues --   -0.53931  -0.53214  -0.52372  -0.52145  -0.51643
 Alpha  occ. eigenvalues --   -0.51463  -0.51047  -0.50113  -0.49662  -0.49586
 Alpha  occ. eigenvalues --   -0.49157  -0.49020  -0.48429  -0.47916  -0.47624
 Alpha  occ. eigenvalues --   -0.47520  -0.47410  -0.47070  -0.46156  -0.45800
 Alpha  occ. eigenvalues --   -0.45330  -0.45112  -0.45027  -0.44847  -0.44562
 Alpha  occ. eigenvalues --   -0.44066  -0.43762  -0.43512  -0.43355  -0.43105
 Alpha  occ. eigenvalues --   -0.43003  -0.42838  -0.42779  -0.42685  -0.42595
 Alpha  occ. eigenvalues --   -0.42238  -0.41929  -0.41841  -0.41718  -0.40797
 Alpha  occ. eigenvalues --   -0.40547  -0.40374  -0.39640  -0.39588  -0.39412
 Alpha  occ. eigenvalues --   -0.38863  -0.38574  -0.38405  -0.37867  -0.37445
 Alpha  occ. eigenvalues --   -0.37126  -0.36977  -0.36270  -0.36039  -0.35956
 Alpha  occ. eigenvalues --   -0.35630  -0.35237  -0.34976  -0.34346  -0.33869
 Alpha  occ. eigenvalues --   -0.33571  -0.33201  -0.33139  -0.32550  -0.32354
 Alpha  occ. eigenvalues --   -0.32084  -0.31773  -0.31716  -0.31314  -0.31007
 Alpha  occ. eigenvalues --   -0.30727  -0.29768  -0.29526  -0.28793  -0.28350
 Alpha  occ. eigenvalues --   -0.27835  -0.27515  -0.27067  -0.25823  -0.24358
 Alpha  occ. eigenvalues --   -0.23998  -0.23273  -0.22909  -0.22617  -0.21918
 Alpha  occ. eigenvalues --   -0.19069  -0.18680  -0.18200  -0.17670  -0.16556
 Alpha virt. eigenvalues --   -0.06365  -0.06120  -0.01492  -0.01241  -0.00263
 Alpha virt. eigenvalues --    0.00344   0.01438   0.01948   0.02207   0.02380
 Alpha virt. eigenvalues --    0.02614   0.02952   0.03238   0.03706   0.04267

 Mulliken charges:
               1
     1  C   -0.363000
     2  C    0.086386
     3  N   -0.199908
     4  C   -0.148765
     5  C   -0.010018
     6  N   -0.002806
     7  H    0.150134
     8  H    0.114135
     9  H    0.232544
    10  H    0.157603
    11  H    0.197759
    12  C   -0.379558
    13  C    0.100509
    14  N   -0.207575
    15  C   -0.125565
    16  C   -0.018872
    17  N   -0.011729
    18  H    0.122109
    19  H    0.146973
    20  H    0.229675
    21  H    0.140120
    22  H    0.168403
    23  C   -0.440755
    24  C   -0.561547
    25  C   -0.486996
    26  C   -0.599238
    27  C    0.279412
    28  C   -0.052947
    29  C   -0.000902
    30  C    0.127657
    31  C   -0.500303
    32  C   -0.259661
    33  C   -0.234206
    34  C    0.282098
    35  O   -0.376938
    36  O   -0.331706
    37  C    0.218226
    38  C    0.022891
    39  C    0.034584
    40  C    0.248881
    41  C   -0.522187
    42  C   -0.185477
    43  C   -0.301122
    44  C    0.300189
    45  C   -0.062815
    46  C    0.050763
    47  C    0.309879
    48  C   -0.502262
    49  C   -0.210320
    50  C   -0.246781
    51  C    0.134355
    52  C   -0.006072
    53  C   -0.103080
    54  C    0.313042
    55  C   -0.500416
    56  C   -0.271190
    57  C   -0.215079
    58  C    0.287267
    59  O   -0.261696
    60  O   -0.420463
    61  N    0.032158
    62  N    0.073308
    63  N    0.012284
    64  N    0.048644
    65  Fe  -0.345226
    66  H    0.106219
    67  H    0.105677
    68  H    0.094013
    69  H    0.089093
    70  H    0.074741
    71  H    0.064410
    72  H    0.178193
    73  H    0.146771
    74  H    0.111674
    75  H    0.108949
    76  H    0.119762
    77  H    0.158957
    78  H    0.125155
    79  H    0.106449
    80  H    0.152249
    81  H    0.188396
    82  H    0.123513
    83  H    0.131459
    84  H    0.167589
    85  H    0.102753
    86  H    0.183301
    87  H    0.114872
    88  H    0.129794
    89  H    0.117071
    90  H    0.170631
    91  H    0.170817
    92  H    0.129181
    93  H    0.124650
    94  H    0.111482
    95  H    0.154889
    96  H    0.144025
    97  H    0.141207
    98  H    0.350629
    99  H    0.346623
 Sum of Mulliken charges =  -0.00000

 Dipole moment (field-independent basis, Debye):
    X=             -0.9614    Y=             -0.2384    Z=              3.9893  Tot=              4.1104
 Quadrupole moment (field-independent basis, Debye-Ang):
   XX=           -325.3824   YY=           -343.8366   ZZ=           -284.0509
   XY=             -8.0548   XZ=            -30.5006   YZ=             -1.3544

  Exact polarizability: 827.939   6.309 777.272  -1.272  62.764 450.080
 Approx polarizability:1415.140  35.9371404.192  18.194 167.711 718.584

 Normal termination of Gaussian 16 at Sun Feb  5 07:52:27 2023.
