 Gaussian 16, Revision A.03,
 Gaussian 16:  ES64L-G16RevA.03 25-Dec-2016

 ---------------------------------------------------------------------
 # polar def2tzvp empiricaldispersion=gd3bj int=grid=ultrafine pbe1pbe
 ---------------------------------------------------------------------

 ---------
 1c6r_II_S
 ---------
 Symbolic Z-matrix:
 Charge =  0 Multiplicity = 1

                         Standard orientation:
 ---------------------------------------------------------------------
 Center     Atomic      Atomic             Coordinates (Angstroms)
 Number     Number       Type             X           Y           Z
 ---------------------------------------------------------------------
      1          6           0        2.736242   -1.776043    4.898489
      2          6           0        1.883989   -1.152163    3.834226
      3          7           0        0.549537   -0.869223    4.024381
      4          6           0        2.163217   -0.809694    2.554077
      5          6           0        0.037210   -0.387008    2.905909
      6          7           0        0.996331   -0.339799    1.998544
      7          6           0       -1.121194    2.447425   -2.919353
      8          6           0       -0.477081    1.206254   -3.522607
      9         16           0        0.855251    0.546857   -2.529984
     10          6           0        1.307309   -0.917554   -3.518704
     11          6           0       -2.452476   -0.302014   -0.004859
     12          6           0        1.190179   -3.341197   -0.705720
     13          6           0        4.205773    0.356876   -0.436711
     14          6           0        0.636291    3.287494    0.979221
     15          6           0       -1.751367   -1.480337   -0.183986
     16          6           0       -2.369027   -2.801194   -0.339528
     17          6           0       -1.326576   -3.648109   -0.638721
     18          6           0       -0.109593   -2.852222   -0.564296
     19          6           0       -1.395852   -5.121432   -1.039331
     20          6           0       -3.890341   -3.101707   -0.156806
     21          6           0       -4.402298   -3.010647    1.296247
     22          6           0       -5.923453   -3.084036    1.415627
     23          8           0       -6.419370   -3.374962    2.534089
     24          8           0       -6.627206   -2.826887    0.413953
     25          6           0        2.363236   -2.586173   -0.693935
     26          6           0        3.684907   -3.108953   -0.876683
     27          6           0        4.539660   -2.057220   -0.897027
     28          6           0        3.703305   -0.905992   -0.689675
     29          6           0        4.015606   -4.589969   -1.003218
     30          6           0        5.937894   -2.043612   -1.123315
     31          6           0        6.478357   -2.342578   -2.385349
     32          6           0        3.518583    1.453110    0.004053
     33          6           0        4.119993    2.723094    0.359285
     34          6           0        3.133375    3.516717    0.820229
     35          6           0        1.911080    2.758917    0.732570
     36          6           0        5.615681    2.986007    0.419954
     37          6           0        3.267557    4.758189    1.472659
     38          6           0        3.635550    5.918056    0.757325
     39          6           0       -0.536506    2.603013    0.713125
     40          6           0       -1.897794    3.166591    0.757848
     41          6           0       -2.755821    2.174098    0.414640
     42          6           0       -1.932585    0.976801    0.181374
     43          6           0       -2.273862    4.556564    1.186588
     44          6           0       -4.256939    2.257772    0.280854
     45          6           0       -4.600448    2.323799   -1.190363
     46          6           0       -6.052051    2.705642   -1.427561
     47          8           0       -6.927044    1.812214   -1.431703
     48          8           0       -6.342982    3.905097   -1.580619
     49          7           0       -0.390255   -1.522294   -0.311070
     50          7           0        2.390691   -1.235478   -0.545656
     51          7           0        2.168352    1.465181    0.237144
     52          7           0       -0.581066    1.253457    0.288007
     53         26           0        0.900382   -0.022733   -0.086298
     54          1           0       -7.558144   -3.061246    0.408417
     55          1           0       -3.976441   -3.814701    1.859312
     56          1           0       -4.071037   -2.084546    1.717558
     57          1           0       -4.444431   -2.407006   -0.752856
     58          1           0       -4.084250   -4.089127   -0.520538
     59          1           0       -2.376239   -5.500001   -0.838268
     60          1           0       -1.183695   -5.217435   -2.083684
     61          1           0       -0.676122   -5.678309   -0.476503
     62          1           0        1.297200   -4.397853   -0.835818
     63          1           0        3.126999   -5.167652   -0.856384
     64          1           0        4.410848   -4.785133   -1.978203
     65          1           0        4.741345   -4.857795   -0.263980
     66          1           0        5.944017   -2.979497   -3.058932
     67          1           0        7.424277   -1.933331   -2.672842
     68          1           0        6.596599   -1.800465   -0.315919
     69          1           0        5.253742    0.491703   -0.605477
     70          1           0        6.089599    2.218821    0.995911
     71          1           0        6.018030    2.987664   -0.571516
     72          1           0        5.792415    3.936636    0.878179
     73          1           0        3.256084    6.873171    1.055084
     74          1           0        4.293970    5.842170   -0.082690
     75          1           0        3.087938    4.822748    2.525498
     76          1           0        0.566579    4.271059    1.394719
     77          1           0       -2.613809    4.537223    2.200966
     78          1           0       -1.420296    5.197070    1.108631
     79          1           0       -3.055310    4.925316    0.555509
     80          1           0       -3.519477   -0.381915   -0.009894
     81          1           0       -4.706814    1.390762    0.717667
     82          1           0       -4.614533    3.137171    0.774498
     83          1           0       -4.417467    1.366561   -1.632078
     84          1           0       -3.970141    3.049130   -1.661010
     85          1           0       -7.113335    4.272077   -1.140754
     86          1           0       -1.458655    2.228068   -1.927939
     87          1           0       -0.403746    3.240496   -2.884612
     88          1           0       -1.953732    2.745753   -3.521667
     89          1           0       -1.226906    0.451216   -3.634769
     90          1           0       -0.093008    1.455220   -4.489769
     91          1           0        0.470968   -1.582677   -3.573893
     92          1           0        1.584199   -0.610067   -4.505458
     93          1           0        2.131968   -1.419047   -3.056814
     94          1           0        2.250615   -2.651209    5.276841
     95          1           0        3.684772   -2.045819    4.483264
     96          1           0        2.881521   -1.076311    5.694836
     97          1           0        0.046076   -1.007408    4.877278
     98          1           0       -0.979338   -0.086520    2.760176
     99          1           0        3.112514   -0.889636    2.066897
 ---------------------------------------------------------------------

 SCF Done:  E(RPBE1PBE) =  -3879.42256615     A.U. after   22 cycles

 The electronic state is 1-A.
 Alpha  occ. eigenvalues -- -256.31112 -89.01237 -30.07941 -25.90796 -25.90390
 Alpha  occ. eigenvalues --  -25.90343 -19.26783 -19.26428 -19.17379 -19.16981
 Alpha  occ. eigenvalues --  -14.44790 -14.38863 -14.36997 -14.36598 -14.36590
 Alpha  occ. eigenvalues --  -14.36538 -10.35129 -10.34913 -10.28109 -10.26090
 Alpha  occ. eigenvalues --  -10.24350 -10.24306 -10.24138 -10.23914 -10.23853
 Alpha  occ. eigenvalues --  -10.23623 -10.23617 -10.23483 -10.23470 -10.23401
 Alpha  occ. eigenvalues --  -10.23183 -10.23142 -10.23109 -10.23061 -10.23056
 Alpha  occ. eigenvalues --  -10.22759 -10.22683 -10.22474 -10.22425 -10.22363
 Alpha  occ. eigenvalues --  -10.22294 -10.22187 -10.22122 -10.21874 -10.21632
 Alpha  occ. eigenvalues --  -10.21310 -10.21253 -10.21236 -10.21167 -10.21163
 Alpha  occ. eigenvalues --  -10.21094 -10.21052 -10.20728 -10.20664 -10.20517
 Alpha  occ. eigenvalues --  -10.20288 -10.19807  -7.99039  -5.92719  -5.92412
 Alpha  occ. eigenvalues --   -5.91841  -3.42525  -2.18553  -2.17810  -2.17721
 Alpha  occ. eigenvalues --   -1.17419  -1.17047  -1.06659  -1.02068  -1.01494
 Alpha  occ. eigenvalues --   -0.97747  -0.96151  -0.95730  -0.94672  -0.90807
 Alpha  occ. eigenvalues --   -0.84228  -0.83285  -0.83151  -0.82940  -0.82707
 Alpha  occ. eigenvalues --   -0.82115  -0.81542  -0.80519  -0.79949  -0.79140
 Alpha  occ. eigenvalues --   -0.78385  -0.76742  -0.76007  -0.75864  -0.74482
 Alpha  occ. eigenvalues --   -0.73651  -0.72827  -0.72688  -0.71635  -0.70834
 Alpha  occ. eigenvalues --   -0.70003  -0.69497  -0.68655  -0.66714  -0.65858
 Alpha  occ. eigenvalues --   -0.65454  -0.64761  -0.64563  -0.64288  -0.62391
 Alpha  occ. eigenvalues --   -0.62135  -0.61638  -0.59790  -0.58444  -0.56806
 Alpha  occ. eigenvalues --   -0.56673  -0.55487  -0.54529  -0.54120  -0.53265
 Alpha  occ. eigenvalues --   -0.52286  -0.52015  -0.51751  -0.51032  -0.50818
 Alpha  occ. eigenvalues --   -0.50524  -0.50259  -0.49464  -0.49219  -0.48638
 Alpha  occ. eigenvalues --   -0.48459  -0.48198  -0.47978  -0.47688  -0.47554
 Alpha  occ. eigenvalues --   -0.46258  -0.46021  -0.45606  -0.45504  -0.45237
 Alpha  occ. eigenvalues --   -0.44997  -0.44614  -0.44357  -0.44200  -0.43954
 Alpha  occ. eigenvalues --   -0.43607  -0.43595  -0.43493  -0.43275  -0.43182
 Alpha  occ. eigenvalues --   -0.42875  -0.42813  -0.42719  -0.42584  -0.42437
 Alpha  occ. eigenvalues --   -0.41788  -0.41756  -0.41549  -0.41188  -0.40461
 Alpha  occ. eigenvalues --   -0.39872  -0.39747  -0.39517  -0.39135  -0.39017
 Alpha  occ. eigenvalues --   -0.38780  -0.38725  -0.38480  -0.38295  -0.38045
 Alpha  occ. eigenvalues --   -0.37865  -0.37639  -0.37478  -0.37155  -0.36958
 Alpha  occ. eigenvalues --   -0.36580  -0.36239  -0.36016  -0.35834  -0.35695
 Alpha  occ. eigenvalues --   -0.35404  -0.35021  -0.34534  -0.32908  -0.32533
 Alpha  occ. eigenvalues --   -0.32416  -0.32184  -0.31851  -0.31821  -0.31428
 Alpha  occ. eigenvalues --   -0.30694  -0.29826  -0.27704  -0.27528  -0.27386
 Alpha  occ. eigenvalues --   -0.27110  -0.26432  -0.25967  -0.25238  -0.24910
 Alpha  occ. eigenvalues --   -0.24195  -0.23352  -0.22674  -0.22276  -0.20141
 Alpha  occ. eigenvalues --   -0.18630  -0.18433  -0.18156  -0.18130
 Alpha virt. eigenvalues --   -0.06409  -0.06186  -0.02537  -0.02198  -0.00670
 Alpha virt. eigenvalues --    0.00186   0.00905   0.01295   0.02057   0.02323
 Alpha virt. eigenvalues --    0.02786   0.03375   0.04046   0.04301   0.04971

 Mulliken charges:
               1
     1  C   -0.386495
     2  C    0.162497
     3  N   -0.215689
     4  C   -0.194292
     5  C    0.026044
     6  N   -0.031966
     7  C   -0.313761
     8  C   -0.194846
     9  S    0.018138
    10  C   -0.365541
    11  C   -0.608021
    12  C   -0.485107
    13  C   -0.484144
    14  C   -0.527813
    15  C    0.259095
    16  C    0.009652
    17  C   -0.074572
    18  C    0.222309
    19  C   -0.400065
    20  C   -0.345153
    21  C   -0.185705
    22  C    0.267491
    23  O   -0.391877
    24  O   -0.315604
    25  C    0.313207
    26  C   -0.083584
    27  C    0.088160
    28  C    0.177060
    29  C   -0.371859
    30  C   -0.265280
    31  C   -0.261272
    32  C    0.283229
    33  C   -0.101664
    34  C    0.118739
    35  C    0.173630
    36  C   -0.397921
    37  C   -0.298263
    38  C   -0.265849
    39  C    0.340575
    40  C   -0.016426
    41  C    0.035369
    42  C    0.211581
    43  C   -0.437898
    44  C   -0.367205
    45  C   -0.139460
    46  C    0.268851
    47  O   -0.379727
    48  O   -0.332616
    49  N    0.029920
    50  N   -0.037713
    51  N    0.044353
    52  N    0.007259
    53  Fe  -0.386575
    54  H    0.345688
    55  H    0.136169
    56  H    0.135017
    57  H    0.142894
    58  H    0.117574
    59  H    0.123415
    60  H    0.141706
    61  H    0.131163
    62  H    0.091314
    63  H    0.121493
    64  H    0.127184
    65  H    0.131270
    66  H    0.131253
    67  H    0.133813
    68  H    0.130877
    69  H    0.128253
    70  H    0.130735
    71  H    0.137365
    72  H    0.142267
    73  H    0.132004
    74  H    0.142059
    75  H    0.132450
    76  H    0.115750
    77  H    0.142126
    78  H    0.134744
    79  H    0.133751
    80  H    0.136884
    81  H    0.129030
    82  H    0.125931
    83  H    0.130941
    84  H    0.125201
    85  H    0.351566
    86  H    0.112149
    87  H    0.118999
    88  H    0.117767
    89  H    0.115503
    90  H    0.123986
    91  H    0.136185
    92  H    0.143348
    93  H    0.163664
    94  H    0.134432
    95  H    0.144616
    96  H    0.139083
    97  H    0.231207
    98  H    0.164629
    99  H    0.149353
 Sum of Mulliken charges =  -0.00000

 Dipole moment (field-independent basis, Debye):
    X=              1.1857    Y=              0.6723    Z=              2.0928  Tot=              2.4976
 Quadrupole moment (field-independent basis, Debye-Ang):
   XX=           -326.6851   YY=           -302.9985   ZZ=           -301.2094
   XY=            -22.7947   XZ=             13.1469   YZ=              8.6262

  Exact polarizability: 822.944  -3.355 739.856 -28.105  55.533 450.772
 Approx polarizability:1406.011  -2.5181354.589 -73.376 151.409 722.291

 Normal termination of Gaussian 16 at Mon Jan 16 19:38:28 2023.
