 Gaussian 16, Revision A.03,
 Gaussian 16:  ES64L-G16RevA.03 25-Dec-2016

 ----------------------------------------------------------------------
 # PBE1PBE/def2TZVP empiricaldispersion=GD3BJ int=(grid=ultrafine) geom
 =check pop=nbo
 ----------------------------------------------------------------------

 ----------
 1ccc_III_D
 ----------
 Structure from the checkpoint file:  "1ccc_III_D.chk"
 Charge =  1 Multiplicity = 2

                         Standard orientation:
 ---------------------------------------------------------------------
 Center     Atomic      Atomic             Coordinates (Angstroms)
 Number     Number       Type             X           Y           Z
 ---------------------------------------------------------------------
      1          6           0       -1.569949   -1.838410    4.961434
      2          6           0       -1.479392   -0.895843    3.750616
      3          7           0       -1.693155    0.411778    3.691563
      4          6           0       -1.162440   -1.249704    2.466652
      5          6           0       -1.491293    0.845786    2.471301
      6          7           0       -1.168366   -0.171647    1.718591
      7          1           0       -2.121131    0.949831    4.376849
      8          6           0        2.363359    0.103689    0.237942
      9          6           0       -0.981740    3.544414   -0.259818
     10          6           0       -4.244496    0.084665   -0.644771
     11          6           0       -0.862945   -3.276823   -0.688878
     12          6           0        1.752141    1.363646    0.148080
     13          6           0        2.454817    2.531999    0.156170
     14          6           0        1.492355    3.551874    0.041755
     15          6           0        0.266693    2.918016   -0.082441
     16          6           0        1.707747    5.070714   -0.013430
     17          6           0        3.977852    2.572143    0.241803
     18          6           0        4.707806    2.821643   -1.051435
     19          6           0        6.232571    2.854570   -0.893225
     20          8           0        6.787480    3.798328   -0.347173
     21          8           0        6.943109    1.961180   -1.326830
     22          6           0       -2.241017    2.906098   -0.311552
     23          6           0       -3.487070    3.554977   -0.319243
     24          6           0       -4.429216    2.525371   -0.361342
     25          6           0       -3.690649    1.344435   -0.428095
     26          6           0       -3.679044    5.054793   -0.175876
     27          6           0       -5.832646    2.508679   -0.349091
     28          6           0       -6.747712    3.599106   -0.257492
     29          6           0       -3.640666   -1.168920   -0.768240
     30          6           0       -4.318680   -2.334301   -1.125064
     31          6           0       -3.295330   -3.284463   -1.259688
     32          6           0       -2.107901   -2.663283   -0.841590
     33          6           0       -5.839420   -2.461272   -1.364908
     34          6           0       -3.358381   -4.630509   -1.627580
     35          6           0       -4.512237   -5.519088   -1.568492
     36          6           0        0.351357   -2.680930   -0.354800
     37          6           0        1.495817   -3.361923    0.022047
     38          6           0        2.433591   -2.378155    0.304765
     39          6           0        1.791134   -1.161598    0.078546
     40          6           0        1.721205   -4.853869    0.110569
     41          6           0        3.894296   -2.597839    0.721528
     42          6           0        4.848486   -2.684053   -0.476101
     43          6           0        6.322185   -2.738898   -0.113061
     44          8           0        7.159932   -2.240473   -0.839094
     45          8           0        6.646332   -3.290452    0.924737
     46          7           0        0.432203    1.593744    0.002826
     47          7           0       -2.395877    1.581569   -0.285487
     48          7           0       -2.322517   -1.381173   -0.565956
     49          7           0        0.533194   -1.359426   -0.297990
     50         26           0       -0.955432    0.100357   -0.255377
     51          8           0       -0.710817    0.414192   -2.071370
     52          1           0       -0.939628   -2.687861    4.800098
     53          1           0       -1.251465   -1.319985    5.841606
     54          1           0       -2.581790   -2.163516    5.085460
     55          1           0       -0.945674   -2.241587    2.128896
     56          1           0       -1.576626    1.861783    2.146695
     57          1           0        1.529701    5.420262   -1.008928
     58          1           0        1.029689    5.551814    0.660129
     59          1           0        2.713992    5.298783    0.270042
     60          1           0        4.251353    3.343162    0.931460
     61          1           0        4.312919    1.635882    0.636830
     62          1           0        4.452073    2.047049   -1.743898
     63          1           0        4.384735    3.760007   -1.451432
     64          1           0        7.582380    4.175424   -0.731274
     65          1           0        3.410323    0.112777    0.458589
     66          1           0       -0.994066   -0.188352   -2.762970
     67          1           0       -0.296596    1.184219   -2.467702
     68          1           0        3.959897   -3.507907    1.280430
     69          1           0        4.199766   -1.785638    1.347560
     70          1           0        4.606620   -3.562382   -1.037295
     71          1           0        4.686239   -1.829053   -1.098637
     72          1           0        7.405716   -2.676398   -1.658337
     73          1           0        2.383060   -5.161637   -0.671816
     74          1           0        2.154480   -5.093467    1.059129
     75          1           0        0.785633   -5.362681    0.007060
     76          1           0       -0.838466   -4.334645   -0.847974
     77          1           0       -6.044495   -3.378566   -1.876197
     78          1           0       -6.350507   -2.454929   -0.424881
     79          1           0       -6.176616   -1.638271   -1.959775
     80          1           0       -4.656793   -6.259408   -2.327392
     81          1           0       -5.214736   -5.431083   -0.766214
     82          1           0       -2.451020   -5.060786   -1.996982
     83          1           0       -5.310973    0.075810   -0.731068
     84          1           0       -7.546102    3.688347   -0.964252
     85          1           0       -6.635719    4.327813    0.517972
     86          1           0       -6.280189    1.539244   -0.418379
     87          1           0       -4.097633    5.448676   -1.078394
     88          1           0       -4.341387    5.253143    0.640738
     89          1           0       -2.733355    5.519163    0.011030
     90          1           0       -0.976188    4.609126   -0.365920
 ---------------------------------------------------------------------

 SCF Done:  E(UPBE1PBE) =  -3438.41467171     A.U. after   65 cycles

 Alpha virt. eigenvalues --    0.63132   0.63233   0.63455   0.63780   0.63907
 Alpha virt. eigenvalues --    0.64178   0.64582   0.64724   0.65453   0.65778
 Alpha virt. eigenvalues --    0.65986   0.66509   0.66628   0.66864   0.67293

  Beta  occ. eigenvalues -- -256.52444 -30.28873 -26.11982 -26.11647 -26.11011
  Beta  occ. eigenvalues --  -19.38488 -19.32227 -19.31157 -19.23791 -19.23587
  Beta  occ. eigenvalues --  -14.55918 -14.51897 -14.48810 -14.48687 -14.48244
  Beta  occ. eigenvalues --  -14.47887 -10.41437 -10.40627 -10.39095 -10.36842
  Beta  occ. eigenvalues --  -10.35540 -10.35123 -10.35074 -10.35046 -10.35030
  Beta  occ. eigenvalues --  -10.34619 -10.34496 -10.34465 -10.34182 -10.33188
  Beta  occ. eigenvalues --  -10.33080 -10.32950 -10.32879 -10.32639 -10.32539
  Beta  occ. eigenvalues --  -10.32448 -10.32431 -10.32323 -10.32276 -10.32191
  Beta  occ. eigenvalues --  -10.32051 -10.31990 -10.31749 -10.31638 -10.31549
  Beta  occ. eigenvalues --  -10.31471 -10.31183 -10.31029 -10.30527 -10.30385
  Beta  occ. eigenvalues --  -10.30352 -10.30232 -10.30085 -10.29876  -3.61280
  Beta  occ. eigenvalues --   -2.36919  -2.36301  -2.35878  -1.25090  -1.24282
  Beta  occ. eigenvalues --   -1.22113  -1.20478  -1.11609  -1.10759  -1.10335
  Beta  occ. eigenvalues --   -1.09847  -1.09701  -1.09606  -1.04977  -0.94853
  Beta  occ. eigenvalues --   -0.93405  -0.93174  -0.92660  -0.92290  -0.92034
  Beta  occ. eigenvalues --   -0.91730  -0.91680  -0.88825  -0.87937  -0.86757
  Beta  occ. eigenvalues --   -0.85958  -0.85378  -0.83644  -0.83177  -0.81926
  Beta  occ. eigenvalues --   -0.81557  -0.81053  -0.79975  -0.78197  -0.77783
  Beta  occ. eigenvalues --   -0.77495  -0.76846  -0.76522  -0.74409  -0.73965
  Beta  occ. eigenvalues --   -0.73633  -0.73272  -0.72665  -0.71930  -0.69541
  Beta  occ. eigenvalues --   -0.69527  -0.68385  -0.66847  -0.65776  -0.65019
  Beta  occ. eigenvalues --   -0.65008  -0.63409  -0.63089  -0.62863  -0.62413
  Beta  occ. eigenvalues --   -0.60712  -0.60612  -0.60288  -0.59591  -0.59251
  Beta  occ. eigenvalues --   -0.59161  -0.58900  -0.57748  -0.57510  -0.57137
  Beta  occ. eigenvalues --   -0.56433  -0.56357  -0.55605  -0.55250  -0.55059
  Beta  occ. eigenvalues --   -0.54866  -0.54780  -0.54303  -0.54116  -0.53968
  Beta  occ. eigenvalues --   -0.53607  -0.53458  -0.53265  -0.53061  -0.52741
  Beta  occ. eigenvalues --   -0.52656  -0.52327  -0.52268  -0.51788  -0.51481
  Beta  occ. eigenvalues --   -0.51367  -0.51139  -0.50956  -0.50735  -0.50396
  Beta  occ. eigenvalues --   -0.50257  -0.50096  -0.49561  -0.49357  -0.48745
  Beta  occ. eigenvalues --   -0.48524  -0.48349  -0.48013  -0.47426  -0.47293
  Beta  occ. eigenvalues --   -0.47076  -0.47054  -0.46843  -0.46787  -0.46275
  Beta  occ. eigenvalues --   -0.45764  -0.45146  -0.44929  -0.44491  -0.43638
  Beta  occ. eigenvalues --   -0.43366  -0.43223  -0.42309  -0.41576  -0.40937
  Beta  occ. eigenvalues --   -0.40703  -0.40277  -0.39630  -0.39517  -0.39455
  Beta  occ. eigenvalues --   -0.38781  -0.38118  -0.37151  -0.35206  -0.34479
  Beta  occ. eigenvalues --   -0.34082  -0.33667  -0.33217  -0.32075  -0.30175
  Beta  occ. eigenvalues --   -0.29942  -0.28386
  Beta virt. eigenvalues --   -0.19614  -0.18840  -0.17196  -0.14910  -0.14444
  Beta virt. eigenvalues --   -0.13189  -0.12165  -0.09550  -0.09028  -0.08563
  Beta virt. eigenvalues --   -0.06954  -0.06804  -0.05973  -0.05343  -0.04505

 Mulliken charges and spin densities:
               1          2
     1  C   -0.358848  -0.000544
     2  C    0.141961   0.000770
     3  N   -0.187332   0.001651
     4  C   -0.209761   0.001318
     5  C    0.028329   0.016592
     6  N    0.075849  -0.045652
     7  H    0.241199  -0.000329
     8  C   -0.451820  -0.006870
     9  C   -0.490704  -0.076360
    10  C   -0.434158  -0.011094
    11  C   -0.498125   0.039183
    12  C    0.345794  -0.001615
    13  C    0.045067   0.024371
    14  C   -0.062950  -0.018418
    15  C    0.205167   0.033341
    16  C   -0.392352   0.000470
    17  C   -0.458680  -0.002612
    18  C   -0.099779   0.001235
    19  C    0.228164   0.000049
    20  O   -0.320709  -0.000003
    21  O   -0.344790   0.000102
    22  C    0.286549   0.056682
    23  C   -0.134917  -0.178262
    24  C   -0.000918   0.145020
    25  C    0.276800  -0.016185
    26  C   -0.357218   0.008726
    27  C   -0.102138  -0.397377
    28  C   -0.292338   0.557190
    29  C    0.271956   0.005065
    30  C   -0.117108  -0.008290
    31  C    0.032284   0.006651
    32  C    0.262273  -0.023770
    33  C   -0.389835   0.000306
    34  C   -0.171967  -0.003008
    35  C   -0.314371   0.002087
    36  C    0.273301  -0.020927
    37  C   -0.098336   0.007187
    38  C    0.017010  -0.002929
    39  C    0.244105   0.000998
    40  C   -0.373510  -0.000677
    41  C   -0.285290   0.000134
    42  C   -0.262607  -0.000081
    43  C    0.274250   0.000001
    44  O   -0.302938   0.000001
    45  O   -0.315174  -0.000013
    46  N   -0.050578  -0.049901
    47  N   -0.040934  -0.070772
    48  N   -0.051111  -0.022748
    49  N   -0.047218  -0.026805
    50  Fe  -0.246252   1.120522
    51  O   -0.453451   0.003926
    52  H    0.158870   0.000019
    53  H    0.147735  -0.000078
    54  H    0.158534   0.000130
    55  H    0.167227  -0.000398
    56  H    0.193102  -0.000945
    57  H    0.149450  -0.000596
    58  H    0.144428  -0.000454
    59  H    0.151036  -0.000151
    60  H    0.143656   0.000450
    61  H    0.139238   0.000241
    62  H    0.124821  -0.000131
    63  H    0.116951  -0.000029
    64  H    0.364613   0.000005
    65  H    0.111603   0.000105
    66  H    0.372699  -0.001045
    67  H    0.376471  -0.002611
    68  H    0.132130  -0.000151
    69  H    0.134241   0.000033
    70  H    0.131962   0.000001
    71  H    0.127599   0.000035
    72  H    0.356721  -0.000000
    73  H    0.147708   0.000169
    74  H    0.154607  -0.000046
    75  H    0.132129   0.000048
    76  H    0.109560  -0.001780
    77  H    0.166523  -0.000070
    78  H    0.156689  -0.000420
    79  H    0.137855   0.000050
    80  H    0.161824  -0.000104
    81  H    0.163934  -0.000146
    82  H    0.131634   0.000397
    83  H    0.104370   0.001321
    84  H    0.162208  -0.031431
    85  H    0.148313  -0.031569
    86  H    0.127660   0.028550
    87  H    0.158565  -0.006494
    88  H    0.140412  -0.004977
    89  H    0.124112   0.000423
    90  H    0.136967   0.003310
 Sum of Mulliken charges =   1.00000   1.00000

 Dipole moment (field-independent basis, Debye):
    X=             -7.5240    Y=              3.7198    Z=             -0.2951  Tot=              8.3985
 Quadrupole moment (field-independent basis, Debye-Ang):
   XX=           -244.4754   YY=           -222.1641   ZZ=           -245.0295
   XY=             17.0605   XZ=            -29.5218   YZ=              9.5580

 Summary of Natural Population Analysis:

                                       Natural Population
                Natural  -----------------------------------------------
    Atom  No    Charge         Core      Valence    Rydberg      Total
 -----------------------------------------------------------------------
      C    1   -0.31757      0.99969     2.31495    0.00293     3.31757
      C    2    0.06256      0.99956     1.92825    0.00963     2.93744
      N    3   -0.22384      0.99964     2.71376    0.01043     3.72384
      C    4   -0.02965      0.99949     2.01994    0.01022     3.02965
      C    5    0.10732      0.99966     1.88337    0.00964     2.89268
      N    6   -0.18302      0.99964     2.66066    0.02272     3.68302
      H    7    0.21135      0.00000     0.28787    0.00078     0.28865
      C    8   -0.09023      0.99955     2.08258    0.00811     3.09023
      C    9   -0.14237      0.99955     2.13492    0.00790     3.14237
      C   10   -0.10592      0.99955     2.09869    0.00769     3.10592
      C   11   -0.08511      0.99954     2.07788    0.00770     3.08511
      C   12    0.06132      0.99942     1.92896    0.01030     2.93868
      C   13    0.00455      0.99940     1.98641    0.00965     2.99545
      C   14   -0.01166      0.99944     2.00407    0.00815     3.01166
      C   15    0.07259      0.99948     1.91732    0.01061     2.92741
      C   16   -0.31963      0.99970     2.31634    0.00358     3.31963
      C   17   -0.20893      0.99965     2.20238    0.00690     3.20893
      C   18   -0.24311      0.99962     2.23513    0.00836     3.24311
      C   19    0.38150      0.99978     1.59876    0.01996     2.61850
      O   20   -0.33106      0.99978     3.31652    0.01476     4.33106
      O   21   -0.29550      0.99988     3.28251    0.01311     4.29550
      C   22    0.08712      0.99951     1.90248    0.01089     2.91288
      C   23   -0.07277      0.99947     2.06468    0.00861     3.07277
      C   24    0.00199      0.99944     1.98839    0.01018     2.99801
      C   25    0.07825      0.99950     1.91166    0.01059     2.92175
      C   26   -0.31403      0.99970     2.31032    0.00402     3.31403
      C   27   -0.25914      0.99965     2.24986    0.00964     3.25914
      C   28    0.08683      0.99972     1.90801    0.00544     2.91317
      C   29    0.06414      0.99948     1.92638    0.00999     2.93586
      C   30    0.01248      0.99944     1.97952    0.00856     2.98752
      C   31   -0.05490      0.99946     2.04504    0.01040     3.05490
      C   32    0.07204      0.99952     1.91776    0.01068     2.92796
      C   33   -0.32035      0.99969     2.31715    0.00351     3.32035
      C   34   -0.10349      0.99963     2.09449    0.00937     3.10349
      C   35   -0.17574      0.99974     2.17023    0.00577     3.17574
      C   36    0.05883      0.99947     1.93082    0.01088     2.94117
      C   37   -0.00426      0.99943     1.99663    0.00820     3.00426
      C   38   -0.00233      0.99943     1.99369    0.00921     3.00233
      C   39    0.06582      0.99948     1.92450    0.01020     2.93418
      C   40   -0.31871      0.99970     2.31533    0.00368     3.31871
      C   41   -0.20969      0.99967     2.20244    0.00759     3.20969
      C   42   -0.25623      0.99963     2.24823    0.00838     3.25623
      C   43    0.38346      0.99976     1.59785    0.01893     2.61654
      O   44   -0.32998      0.99976     3.31386    0.01636     4.32998
      O   45   -0.27914      0.99988     3.26658    0.01267     4.27914
      N   46   -0.22361      0.99964     2.69969    0.02429     3.72361
      N   47   -0.22173      0.99962     2.69877    0.02334     3.72173
      N   48   -0.20310      0.99964     2.67912    0.02435     3.70310
      N   49   -0.20240      0.99962     2.67963    0.02314     3.70240
     Fe   50    0.74840      8.99641     3.23496    0.02023    12.25160
      O   51   -0.36282      0.99987     3.35440    0.00856     4.36282
      H   52    0.12103      0.00000     0.37852    0.00045     0.37897
      H   53    0.11432      0.00000     0.38509    0.00059     0.38568
      H   54    0.11631      0.00000     0.38308    0.00060     0.38369
      H   55    0.11684      0.00000     0.38243    0.00074     0.38316
      H   56    0.11694      0.00000     0.38214    0.00092     0.38306
      H   57    0.11311      0.00000     0.38614    0.00075     0.38689
      H   58    0.11257      0.00000     0.38671    0.00072     0.38743
      H   59    0.11444      0.00000     0.38492    0.00063     0.38556
      H   60    0.11493      0.00000     0.38426    0.00081     0.38507
      H   61    0.10862      0.00000     0.39059    0.00079     0.39138
      H   62    0.11622      0.00000     0.38305    0.00073     0.38378
      H   63    0.11116      0.00000     0.38809    0.00075     0.38884
      H   64    0.26176      0.00000     0.23699    0.00125     0.23824
      H   65    0.10858      0.00000     0.38999    0.00142     0.39142
      H   66    0.26067      0.00000     0.23800    0.00133     0.23933
      H   67    0.26257      0.00000     0.23611    0.00132     0.23743
      H   68    0.12006      0.00000     0.37914    0.00080     0.37994
      H   69    0.11162      0.00000     0.38761    0.00077     0.38838
      H   70    0.11471      0.00000     0.38461    0.00068     0.38529
      H   71    0.10769      0.00000     0.39152    0.00079     0.39231
      H   72    0.25877      0.00000     0.24010    0.00113     0.24123
      H   73    0.11489      0.00000     0.38433    0.00078     0.38511
      H   74    0.11712      0.00000     0.38213    0.00075     0.38288
      H   75    0.11022      0.00000     0.38918    0.00060     0.38978
      H   76    0.11011      0.00000     0.38867    0.00122     0.38989
      H   77    0.12126      0.00000     0.37795    0.00079     0.37874
      H   78    0.11515      0.00000     0.38415    0.00070     0.38485
      H   79    0.11127      0.00000     0.38799    0.00075     0.38873
      H   80    0.10412      0.00000     0.39519    0.00069     0.39588
      H   81    0.09941      0.00000     0.39977    0.00082     0.40059
      H   82    0.10520      0.00000     0.39394    0.00085     0.39480
      H   83    0.10757      0.00000     0.39080    0.00163     0.39243
      H   84    0.09160      0.00000     0.40755    0.00085     0.40840
      H   85    0.08583      0.00000     0.41317    0.00100     0.41417
      H   86    0.11426      0.00000     0.38502    0.00071     0.38574
      H   87    0.11574      0.00000     0.38334    0.00092     0.38426
      H   88    0.11273      0.00000     0.38656    0.00071     0.38727
      H   89    0.10910      0.00000     0.39030    0.00060     0.39090
      H   90    0.11300      0.00000     0.38575    0.00126     0.38700
 =======================================================================
   * Total *    1.00000     57.97696   128.43861    0.58443   187.00000

 Normal termination of Gaussian 16 at Fri Jan 20 16:00:08 2023.
