 Gaussian 16, Revision A.03,
 Gaussian 16:  ES64L-G16RevA.03 25-Dec-2016

 ----------------------------------------------------------------------
 # PBE1PBE/def2TZVP empiricaldispersion=GD3BJ int=(grid=ultrafine) geom
 =check pop=nbo
 ----------------------------------------------------------------------

 ---------
 1ccg_II_Q
 ---------
 Structure from the checkpoint file:  "1ccg_II_Q.chk"
 Charge =  0 Multiplicity = 5

                         Standard orientation:
 ---------------------------------------------------------------------
 Center     Atomic      Atomic             Coordinates (Angstroms)
 Number     Number       Type             X           Y           Z
 ---------------------------------------------------------------------
      1          6           0       -2.347125   -0.118396    0.266940
      2          6           0        1.032194   -3.442471   -0.232027
      3          6           0        4.275182    0.005496   -0.641394
      4          6           0        0.830362    3.328305   -0.394087
      5          6           0       -1.729458   -1.358472    0.171965
      6          6           0       -2.412739   -2.562007    0.162091
      7          6           0       -1.422406   -3.560337    0.041847
      8          6           0       -0.224284   -2.864462   -0.063560
      9          6           0       -1.613800   -5.082680    0.078513
     10          6           0       -3.937964   -2.694353    0.257386
     11          6           0       -4.688401   -2.763664   -1.038349
     12          6           0       -6.211037   -2.869786   -0.859397
     13          8           0       -6.711277   -3.895741   -0.394219
     14          8           0       -6.948730   -1.940814   -1.190766
     15          6           0        2.270839   -2.794451   -0.296754
     16          6           0        3.497948   -3.460056   -0.339653
     17          6           0        4.446935   -2.447990   -0.383850
     18          6           0        3.720421   -1.254340   -0.437084
     19          6           0        3.646563   -4.971920   -0.197434
     20          6           0        5.851584   -2.474407   -0.347923
     21          6           0        6.727707   -3.604065   -0.186895
     22          6           0        3.632690    1.249217   -0.689602
     23          6           0        4.271535    2.452891   -0.980752
     24          6           0        3.226112    3.397974   -0.972701
     25          6           0        2.075418    2.713403   -0.612078
     26          6           0        5.770182    2.624982   -1.340702
     27          6           0        3.199991    4.783928   -1.198846
     28          6           0        4.299397    5.698136   -1.274909
     29          6           0       -0.378363    2.728224   -0.100626
     30          6           0       -1.546122    3.392460    0.215689
     31          6           0       -2.479160    2.363206    0.386050
     32          6           0       -1.799967    1.170766    0.186393
     33          6           0       -1.739767    4.890045    0.472621
     34          6           0       -3.938533    2.514034    0.798953
     35          6           0       -4.877845    2.571364   -0.392311
     36          6           0       -6.349898    2.583826   -0.058214
     37          8           0       -7.128233    2.125592   -0.887203
     38          8           0       -6.737399    3.050903    1.010484
     39          7           0       -0.412049   -1.545883    0.032290
     40          7           0        2.415914   -1.473068   -0.268700
     41          7           0        2.310920    1.410121   -0.475905
     42          7           0       -0.533349    1.405621   -0.074350
     43         26           0        0.953183   -0.034102    0.003887
     44          7           0        2.276907   -0.277308    3.728347
     45          6           0        1.739951   -0.785012    2.659426
     46          7           0        1.249957    0.204439    1.964542
     47          6           0        1.475700    1.318734    2.588883
     48          6           0        2.151214    1.017798    3.755969
     49          1           0        2.783842   -0.783995    4.378264
     50          8           0        0.649681   -0.381031   -1.927989
     51          1           0        2.493080    1.695089    4.510491
     52          1           0        1.190018    2.295773    2.259216
     53          1           0        1.706009   -1.821978    2.397798
     54          1           0        4.036987   -5.379027   -1.106683
     55          1           0        4.316568   -5.190269    0.607748
     56          1           0        2.690355   -5.406696    0.006369
     57          1           0        7.545125   -3.747698   -0.862245
     58          1           0        6.561914   -4.300635    0.608216
     59          1           0        6.334902   -1.525789   -0.454819
     60          1           0        5.335890    0.026968   -0.780450
     61          1           0        5.911760    3.560275   -1.840784
     62          1           0        6.356326    2.606751   -0.445715
     63          1           0        6.076446    1.826653   -1.983954
     64          1           0        4.195806    6.615671   -1.815556
     65          1           0        5.224549    5.463761   -0.791110
     66          1           0        2.229263    5.213871   -1.332024
     67          1           0        0.817472    4.395915   -0.464378
     68          1           0       -2.406652    5.294310   -0.260000
     69          1           0       -2.152999    5.033893    1.449067
     70          1           0       -0.794918    5.388062    0.408275
     71          1           0       -4.045595    3.414449    1.367012
     72          1           0       -4.211252    1.682223    1.414270
     73          1           0       -4.654454    3.455456   -0.952114
     74          1           0       -4.682963    1.721900   -1.013063
     75          1           0        0.886715   -0.024905   -2.787401
     76          1           0        1.362297   -0.936939   -1.604347
     77          1           0       -4.158022   -3.581327    0.813940
     78          1           0       -4.308133   -1.855251    0.808549
     79          1           0       -4.471352   -1.883521   -1.606801
     80          1           0       -4.347969   -3.617857   -1.585488
     81          1           0       -6.909489   -1.591975   -2.084283
     82          1           0       -1.445035   -5.486987   -0.897681
     83          1           0       -0.917970   -5.513132    0.768028
     84          1           0       -2.611831   -5.309261    0.390754
     85          1           0       -3.404677   -0.151315    0.426314
     86          1           0        1.052471   -4.508431   -0.322680
     87          1           0       -7.188037    3.898366    1.028699
 ---------------------------------------------------------------------

 SCF Done:  E(UPBE1PBE) =  -3399.28131092     A.U. after   67 cycles

 Alpha virt. eigenvalues --    0.61804   0.62062   0.62268   0.62515   0.62644
 Alpha virt. eigenvalues --    0.63008   0.63160   0.63447   0.63815   0.63996
 Alpha virt. eigenvalues --    0.64468   0.64531   0.64710   0.65241   0.65502

  Beta  occ. eigenvalues -- -256.42677 -30.16976 -26.00484 -26.00140 -25.99289
  Beta  occ. eigenvalues --  -19.25841 -19.25017 -19.22565 -19.17932 -19.16747
  Beta  occ. eigenvalues --  -14.48015 -14.41474 -14.38453 -14.38345 -14.37541
  Beta  occ. eigenvalues --  -14.37179 -10.34897 -10.34068 -10.30625 -10.27494
  Beta  occ. eigenvalues --  -10.26229 -10.24799 -10.24454 -10.24269 -10.24231
  Beta  occ. eigenvalues --  -10.24165 -10.24159 -10.24001 -10.23662 -10.23111
  Beta  occ. eigenvalues --  -10.23020 -10.22729 -10.22641 -10.22597 -10.22588
  Beta  occ. eigenvalues --  -10.22561 -10.22526 -10.22289 -10.22283 -10.22174
  Beta  occ. eigenvalues --  -10.22074 -10.22026 -10.21937 -10.21781 -10.21707
  Beta  occ. eigenvalues --  -10.21703 -10.21684 -10.21106 -10.21010 -10.20976
  Beta  occ. eigenvalues --  -10.20427 -10.20253 -10.19718  -3.47636  -2.23860
  Beta  occ. eigenvalues --   -2.23242  -2.19976  -1.18190  -1.16953  -1.12930
  Beta  occ. eigenvalues --   -1.07770  -1.03779  -1.02300  -1.01286  -1.00687
  Beta  occ. eigenvalues --   -0.99902  -0.99420  -0.96774  -0.84468  -0.83936
  Beta  occ. eigenvalues --   -0.83563  -0.82890  -0.82542  -0.81898  -0.81842
  Beta  occ. eigenvalues --   -0.81325  -0.79767  -0.78941  -0.77077  -0.75401
  Beta  occ. eigenvalues --   -0.75109  -0.74005  -0.73001  -0.72068  -0.71447
  Beta  occ. eigenvalues --   -0.70536  -0.70171  -0.69882  -0.69053  -0.67161
  Beta  occ. eigenvalues --   -0.67061  -0.66665  -0.65887  -0.65785  -0.62931
  Beta  occ. eigenvalues --   -0.62664  -0.62130  -0.60358  -0.59110  -0.58910
  Beta  occ. eigenvalues --   -0.57357  -0.56105  -0.54895  -0.54097  -0.53207
  Beta  occ. eigenvalues --   -0.53031  -0.52890  -0.52720  -0.52547  -0.51912
  Beta  occ. eigenvalues --   -0.51647  -0.50965  -0.50548  -0.49648  -0.49426
  Beta  occ. eigenvalues --   -0.49170  -0.49070  -0.48751  -0.48587  -0.47609
  Beta  occ. eigenvalues --   -0.46892  -0.46238  -0.45991  -0.45486  -0.45455
  Beta  occ. eigenvalues --   -0.45028  -0.44811  -0.44548  -0.44288  -0.43972
  Beta  occ. eigenvalues --   -0.43793  -0.43603  -0.43084  -0.42677  -0.42409
  Beta  occ. eigenvalues --   -0.42210  -0.41897  -0.41606  -0.41336  -0.40937
  Beta  occ. eigenvalues --   -0.40739  -0.40709  -0.40099  -0.39957  -0.39476
  Beta  occ. eigenvalues --   -0.39321  -0.38894  -0.38728  -0.38493  -0.38228
  Beta  occ. eigenvalues --   -0.37875  -0.37689  -0.37364  -0.37070  -0.36981
  Beta  occ. eigenvalues --   -0.36835  -0.36625  -0.36211  -0.35905  -0.35775
  Beta  occ. eigenvalues --   -0.35069  -0.34182  -0.33645  -0.33079  -0.32977
  Beta  occ. eigenvalues --   -0.32476  -0.32102  -0.31819  -0.30408  -0.29753
  Beta  occ. eigenvalues --   -0.28385  -0.28083  -0.27964  -0.27558  -0.27158
  Beta  occ. eigenvalues --   -0.26927  -0.24171  -0.24012  -0.21917  -0.20624
  Beta  occ. eigenvalues --   -0.19053  -0.18008
  Beta virt. eigenvalues --   -0.09907  -0.08611  -0.06720  -0.06026  -0.03781
  Beta virt. eigenvalues --   -0.02648  -0.01791  -0.01559  -0.01433   0.00125
  Beta virt. eigenvalues --    0.00252   0.01013   0.01720   0.02487   0.02982

 Mulliken charges and spin densities:
               1          2
     1  C   -0.526221   0.264181
     2  C   -0.475674  -0.120872
     3  C   -0.481991   0.310650
     4  C   -0.511965  -0.073757
     5  C    0.341215  -0.061627
     6  C    0.021319   0.089875
     7  C   -0.083004  -0.049718
     8  C    0.239251   0.088530
     9  C   -0.406587   0.002399
    10  C   -0.431298  -0.010372
    11  C   -0.182815   0.004233
    12  C    0.293314   0.000306
    13  O   -0.348158   0.000048
    14  O   -0.304675   0.000072
    15  C    0.281649   0.115253
    16  C   -0.127192  -0.089349
    17  C   -0.034240   0.208345
    18  C    0.261906  -0.099778
    19  C   -0.345596  -0.002095
    20  C   -0.110153  -0.414806
    21  C   -0.355874   0.662683
    22  C    0.254471  -0.054898
    23  C   -0.149305   0.133996
    24  C    0.033044  -0.017370
    25  C    0.277452   0.072928
    26  C   -0.411220  -0.010430
    27  C   -0.132766  -0.023864
    28  C   -0.334805   0.047763
    29  C    0.312421   0.073190
    30  C   -0.117306  -0.026340
    31  C    0.057676   0.081509
    32  C    0.228129  -0.047328
    33  C   -0.402625   0.000838
    34  C   -0.321538  -0.009222
    35  C   -0.213615   0.003343
    36  C    0.256870   0.000358
    37  O   -0.331366   0.000222
    38  O   -0.338021  -0.000020
    39  N   -0.016700  -0.038090
    40  N   -0.227462  -0.017963
    41  N   -0.022949  -0.049875
    42  N   -0.058369  -0.020806
    43  Fe  -0.130731   2.995287
    44  N   -0.152740   0.002976
    45  C    0.034294   0.016138
    46  N   -0.007275   0.036363
    47  C   -0.113989   0.004282
    48  C   -0.072343   0.004937
    49  H    0.230783   0.001673
    50  O   -0.438061   0.045476
    51  H    0.163270   0.001081
    52  H    0.166340   0.001484
    53  H    0.193622   0.000260
    54  H    0.141324  -0.001188
    55  H    0.122095   0.000618
    56  H    0.111623   0.001261
    57  H    0.133961  -0.034275
    58  H    0.123610  -0.036036
    59  H    0.107178   0.031402
    60  H    0.095948  -0.013547
    61  H    0.146804   0.000379
    62  H    0.141103   0.005235
    63  H    0.133628   0.004101
    64  H    0.134614  -0.002519
    65  H    0.142330  -0.002231
    66  H    0.104366   0.000519
    67  H    0.073586   0.003023
    68  H    0.136943   0.000390
    69  H    0.137749  -0.000382
    70  H    0.128309  -0.000160
    71  H    0.097709   0.001169
    72  H    0.133438   0.003558
    73  H    0.123350  -0.000052
    74  H    0.132466  -0.000436
    75  H    0.330330   0.013090
    76  H    0.303727   0.002424
    77  H    0.136134   0.000828
    78  H    0.127798   0.002781
    79  H    0.109594  -0.000377
    80  H    0.123697  -0.000076
    81  H    0.350806  -0.000004
    82  H    0.143195  -0.001351
    83  H    0.134368  -0.001078
    84  H    0.145806  -0.000498
    85  H    0.097370  -0.014021
    86  H    0.110123   0.005300
    87  H    0.356520   0.000057
 Sum of Mulliken charges =  -0.00000   4.00000

 Dipole moment (field-independent basis, Debye):
    X=              3.6754    Y=              4.2830    Z=              4.4000  Tot=              7.1563
 Quadrupole moment (field-independent basis, Debye-Ang):
   XX=           -343.2585   YY=           -284.2400   ZZ=           -259.7428
   XY=            -37.4445   XZ=             17.5044   YZ=              6.1271

 Summary of Natural Population Analysis:

                                       Natural Population
                Natural  -----------------------------------------------
    Atom  No    Charge         Core      Valence    Rydberg      Total
 -----------------------------------------------------------------------
      C    1   -0.03303      0.99955     2.02505    0.00843     3.03303
      C    2   -0.14877      0.99954     2.14103    0.00820     3.14877
      C    3   -0.02514      0.99954     2.01776    0.00784     3.02514
      C    4   -0.11263      0.99954     2.10534    0.00774     3.11263
      C    5    0.05739      0.99945     1.93261    0.01055     2.94261
      C    6    0.02330      0.99943     1.96787    0.00940     2.97670
      C    7   -0.01831      0.99944     2.01069    0.00818     3.01831
      C    8    0.08499      0.99947     1.90500    0.01053     2.91501
      C    9   -0.31862      0.99970     2.31536    0.00356     3.31862
      C   10   -0.20951      0.99965     2.20241    0.00745     3.20951
      C   11   -0.25190      0.99962     2.24356    0.00873     3.25190
      C   12    0.38330      0.99977     1.59831    0.01862     2.61670
      O   13   -0.28742      0.99989     3.27512    0.01241     4.28742
      O   14   -0.32646      0.99978     3.31048    0.01620     4.32646
      C   15    0.09493      0.99949     1.89453    0.01105     2.90507
      C   16   -0.04261      0.99944     2.03419    0.00898     3.04261
      C   17    0.01183      0.99943     1.97837    0.01038     2.98817
      C   18    0.06250      0.99951     1.92686    0.01113     2.93750
      C   19   -0.31226      0.99970     2.30854    0.00401     3.31226
      C   20   -0.25611      0.99965     2.24650    0.00996     3.25611
      C   21    0.08752      0.99973     1.90698    0.00577     2.91248
      C   22    0.06024      0.99948     1.92998    0.01030     2.93976
      C   23    0.05103      0.99943     1.94115    0.00839     2.94897
      C   24   -0.05960      0.99945     2.05004    0.01011     3.05960
      C   25    0.09457      0.99949     1.89524    0.01070     2.90543
      C   26   -0.32156      0.99970     2.31847    0.00340     3.32156
      C   27   -0.09992      0.99964     2.09148    0.00881     3.09992
      C   28   -0.18525      0.99973     2.17943    0.00609     3.18525
      C   29    0.06913      0.99945     1.92045    0.01096     2.93087
      C   30   -0.00998      0.99936     2.00211    0.00850     3.00998
      C   31    0.01135      0.99944     1.97995    0.00926     2.98865
      C   32    0.06474      0.99948     1.92515    0.01064     2.93526
      C   33   -0.31732      0.99970     2.31399    0.00363     3.31732
      C   34   -0.21205      0.99967     2.20592    0.00645     3.21205
      C   35   -0.25062      0.99962     2.24254    0.00845     3.25062
      C   36    0.38470      0.99975     1.59638    0.01917     2.61530
      O   37   -0.28641      0.99988     3.27400    0.01252     4.28641
      O   38   -0.34098      0.99977     3.32593    0.01528     4.34098
      N   39   -0.21062      0.99964     2.68696    0.02402     3.71062
      N   40   -0.24284      0.99964     2.72054    0.02266     3.74284
      N   41   -0.21287      0.99965     2.69048    0.02274     3.71287
      N   42   -0.19741      0.99964     2.67442    0.02336     3.69741
     Fe   43    1.68510      8.99603     2.29584    0.02302    11.31490
      N   44   -0.21790      0.99966     2.70780    0.01044     3.71790
      C   45    0.10403      0.99965     1.88493    0.01140     2.89597
      N   46   -0.16565      0.99965     2.64539    0.02060     3.66565
      C   47   -0.01304      0.99957     2.00297    0.01050     3.01304
      C   48   -0.04799      0.99962     2.03936    0.00901     3.04799
      H   49    0.20849      0.00000     0.29079    0.00072     0.29151
      O   50   -0.37420      0.99990     3.36162    0.01268     4.37420
      H   51    0.11600      0.00000     0.38345    0.00056     0.38400
      H   52    0.11873      0.00000     0.38059    0.00068     0.38127
      H   53    0.11848      0.00000     0.38072    0.00079     0.38152
      H   54    0.11244      0.00000     0.38659    0.00097     0.38756
      H   55    0.10968      0.00000     0.38956    0.00075     0.39032
      H   56    0.10541      0.00000     0.39394    0.00064     0.39459
      H   57    0.08357      0.00000     0.41552    0.00091     0.41643
      H   58    0.07889      0.00000     0.42007    0.00104     0.42111
      H   59    0.11078      0.00000     0.38849    0.00073     0.38922
      H   60    0.10058      0.00000     0.39786    0.00156     0.39942
      H   61    0.11498      0.00000     0.38416    0.00086     0.38502
      H   62    0.11177      0.00000     0.38750    0.00073     0.38823
      H   63    0.11092      0.00000     0.38836    0.00073     0.38908
      H   64    0.09844      0.00000     0.40085    0.00071     0.40156
      H   65    0.09514      0.00000     0.40401    0.00085     0.40486
      H   66    0.09798      0.00000     0.40107    0.00094     0.40202
      H   67    0.10380      0.00000     0.39500    0.00120     0.39620
      H   68    0.10924      0.00000     0.38995    0.00081     0.39076
      H   69    0.11045      0.00000     0.38879    0.00075     0.38955
      H   70    0.10955      0.00000     0.38985    0.00060     0.39045
      H   71    0.10647      0.00000     0.39231    0.00122     0.39353
      H   72    0.10857      0.00000     0.39038    0.00106     0.39143
      H   73    0.11524      0.00000     0.38408    0.00068     0.38476
      H   74    0.11734      0.00000     0.38189    0.00077     0.38266
      H   75    0.25493      0.00000     0.24397    0.00111     0.24507
      H   76    0.25647      0.00000     0.24208    0.00145     0.24353
      H   77    0.11581      0.00000     0.38330    0.00089     0.38419
      H   78    0.10760      0.00000     0.39158    0.00082     0.39240
      H   79    0.10272      0.00000     0.39643    0.00086     0.39728
      H   80    0.11605      0.00000     0.38326    0.00069     0.38395
      H   81    0.25460      0.00000     0.24426    0.00114     0.24540
      H   82    0.11090      0.00000     0.38828    0.00082     0.38910
      H   83    0.10941      0.00000     0.38979    0.00080     0.39059
      H   84    0.11259      0.00000     0.38672    0.00069     0.38741
      H   85    0.09764      0.00000     0.40114    0.00122     0.40236
      H   86    0.10683      0.00000     0.39180    0.00136     0.39317
      H   87    0.25982      0.00000     0.23896    0.00123     0.24018
 =======================================================================
   * Total *    2.00000     56.97706   124.43641    0.58653   182.00000

 Normal termination of Gaussian 16 at Fri Jan 20 15:55:24 2023.
