 Gaussian 16, Revision A.03,
 Gaussian 16:  ES64L-G16RevA.03 25-Dec-2016

 ----------------------------------------------------------------------
 # PBE1PBE/def2TZVP empiricaldispersion=GD3BJ int=(grid=ultrafine) geom
 =check pop=nbo
 ----------------------------------------------------------------------

 ----------
 1ccg_III_D
 ----------
 Structure from the checkpoint file:  "1ccg_III_D.chk"
 Charge =  1 Multiplicity = 2

                         Standard orientation:
 ---------------------------------------------------------------------
 Center     Atomic      Atomic             Coordinates (Angstroms)
 Number     Number       Type             X           Y           Z
 ---------------------------------------------------------------------
      1          6           0       -2.347125   -0.118396    0.266940
      2          6           0        1.032194   -3.442471   -0.232027
      3          6           0        4.275182    0.005496   -0.641394
      4          6           0        0.830362    3.328305   -0.394087
      5          6           0       -1.729458   -1.358472    0.171965
      6          6           0       -2.412739   -2.562007    0.162091
      7          6           0       -1.422406   -3.560337    0.041847
      8          6           0       -0.224284   -2.864462   -0.063560
      9          6           0       -1.613800   -5.082680    0.078513
     10          6           0       -3.937964   -2.694353    0.257386
     11          6           0       -4.688401   -2.763664   -1.038349
     12          6           0       -6.211037   -2.869786   -0.859397
     13          8           0       -6.711277   -3.895741   -0.394219
     14          8           0       -6.948730   -1.940814   -1.190766
     15          6           0        2.270839   -2.794451   -0.296754
     16          6           0        3.497948   -3.460056   -0.339653
     17          6           0        4.446935   -2.447990   -0.383850
     18          6           0        3.720421   -1.254340   -0.437084
     19          6           0        3.646563   -4.971920   -0.197434
     20          6           0        5.851584   -2.474407   -0.347923
     21          6           0        6.727707   -3.604065   -0.186895
     22          6           0        3.632690    1.249217   -0.689602
     23          6           0        4.271535    2.452891   -0.980752
     24          6           0        3.226112    3.397974   -0.972701
     25          6           0        2.075418    2.713403   -0.612078
     26          6           0        5.770182    2.624982   -1.340702
     27          6           0        3.199991    4.783928   -1.198846
     28          6           0        4.299397    5.698136   -1.274909
     29          6           0       -0.378363    2.728224   -0.100626
     30          6           0       -1.546122    3.392460    0.215689
     31          6           0       -2.479160    2.363206    0.386050
     32          6           0       -1.799967    1.170766    0.186393
     33          6           0       -1.739767    4.890045    0.472621
     34          6           0       -3.938533    2.514034    0.798953
     35          6           0       -4.877845    2.571364   -0.392311
     36          6           0       -6.349898    2.583826   -0.058214
     37          8           0       -7.128233    2.125592   -0.887203
     38          8           0       -6.737399    3.050903    1.010484
     39          7           0       -0.412049   -1.545883    0.032290
     40          7           0        2.415914   -1.473068   -0.268700
     41          7           0        2.310920    1.410121   -0.475905
     42          7           0       -0.533349    1.405621   -0.074350
     43         26           0        0.953183   -0.034102    0.003887
     44          7           0        2.276907   -0.277308    3.728347
     45          6           0        1.739951   -0.785012    2.659426
     46          7           0        1.249957    0.204439    1.964542
     47          6           0        1.475700    1.318734    2.588883
     48          6           0        2.151214    1.017798    3.755969
     49          1           0        2.783842   -0.783995    4.378264
     50          8           0        0.649681   -0.381031   -1.927989
     51          1           0        2.493080    1.695089    4.510491
     52          1           0        1.190018    2.295773    2.259216
     53          1           0        1.706009   -1.821978    2.397798
     54          1           0        4.036987   -5.379027   -1.106683
     55          1           0        4.316568   -5.190269    0.607748
     56          1           0        2.690355   -5.406696    0.006369
     57          1           0        7.545125   -3.747698   -0.862245
     58          1           0        6.561914   -4.300635    0.608216
     59          1           0        6.334902   -1.525789   -0.454819
     60          1           0        5.335890    0.026968   -0.780450
     61          1           0        5.911760    3.560275   -1.840784
     62          1           0        6.356326    2.606751   -0.445715
     63          1           0        6.076446    1.826653   -1.983954
     64          1           0        4.195806    6.615671   -1.815556
     65          1           0        5.224549    5.463761   -0.791110
     66          1           0        2.229263    5.213871   -1.332024
     67          1           0        0.817472    4.395915   -0.464378
     68          1           0       -2.406652    5.294310   -0.260000
     69          1           0       -2.152999    5.033893    1.449067
     70          1           0       -0.794918    5.388062    0.408275
     71          1           0       -4.045595    3.414449    1.367012
     72          1           0       -4.211252    1.682223    1.414270
     73          1           0       -4.654454    3.455456   -0.952114
     74          1           0       -4.682963    1.721900   -1.013063
     75          1           0        0.886715   -0.024905   -2.787401
     76          1           0        1.362297   -0.936939   -1.604347
     77          1           0       -4.158022   -3.581327    0.813940
     78          1           0       -4.308133   -1.855251    0.808549
     79          1           0       -4.471352   -1.883521   -1.606801
     80          1           0       -4.347969   -3.617857   -1.585488
     81          1           0       -6.909489   -1.591975   -2.084283
     82          1           0       -1.445035   -5.486987   -0.897681
     83          1           0       -0.917970   -5.513132    0.768028
     84          1           0       -2.611831   -5.309261    0.390754
     85          1           0       -3.404677   -0.151315    0.426314
     86          1           0        1.052471   -4.508431   -0.322680
     87          1           0       -7.188037    3.898366    1.028699
 ---------------------------------------------------------------------

 SCF Done:  E(UPBE1PBE) =  -3399.11776677     A.U. after   67 cycles

 Alpha virt. eigenvalues --    0.53260   0.53353   0.53667   0.54127   0.54198
 Alpha virt. eigenvalues --    0.54332   0.54669   0.54793   0.55045   0.55287
 Alpha virt. eigenvalues --    0.55829   0.55956   0.56153   0.56527   0.56693

  Beta  occ. eigenvalues -- -256.53678 -30.29994 -26.13050 -26.12868 -26.12115
  Beta  occ. eigenvalues --  -19.34716 -19.32505 -19.31711 -19.24782 -19.23585
  Beta  occ. eigenvalues --  -14.57792 -14.53527 -14.50419 -14.49456 -14.48763
  Beta  occ. eigenvalues --  -14.48459 -10.41908 -10.41054 -10.40804 -10.37269
  Beta  occ. eigenvalues --  -10.36321 -10.36251 -10.36161 -10.35751 -10.35458
  Beta  occ. eigenvalues --  -10.35422 -10.35000 -10.34975 -10.34940 -10.33832
  Beta  occ. eigenvalues --  -10.33793 -10.33467 -10.33213 -10.33164 -10.33158
  Beta  occ. eigenvalues --  -10.33120 -10.33017 -10.32950 -10.32702 -10.32649
  Beta  occ. eigenvalues --  -10.32525 -10.32435 -10.32399 -10.32210 -10.31648
  Beta  occ. eigenvalues --  -10.31365 -10.31245 -10.31033 -10.31019 -10.30820
  Beta  occ. eigenvalues --  -10.30712 -10.30458 -10.30380  -3.62532  -2.38104
  Beta  occ. eigenvalues --   -2.37834  -2.36944  -1.24903  -1.23686  -1.23100
  Beta  occ. eigenvalues --   -1.19413  -1.12945  -1.11759  -1.10970  -1.10584
  Beta  occ. eigenvalues --   -1.10467  -1.09091  -1.07165  -0.95627  -0.94535
  Beta  occ. eigenvalues --   -0.93443  -0.93331  -0.92930  -0.92842  -0.92246
  Beta  occ. eigenvalues --   -0.91832  -0.89385  -0.88225  -0.87502  -0.86666
  Beta  occ. eigenvalues --   -0.86111  -0.84172  -0.82461  -0.82217  -0.81783
  Beta  occ. eigenvalues --   -0.80580  -0.79927  -0.78386  -0.77815  -0.77243
  Beta  occ. eigenvalues --   -0.76804  -0.76503  -0.74702  -0.74227  -0.73585
  Beta  occ. eigenvalues --   -0.72822  -0.72751  -0.71740  -0.70224  -0.70113
  Beta  occ. eigenvalues --   -0.67600  -0.66521  -0.65820  -0.64557  -0.63870
  Beta  occ. eigenvalues --   -0.63283  -0.63072  -0.62019  -0.61243  -0.61099
  Beta  occ. eigenvalues --   -0.60763  -0.60327  -0.59960  -0.59911  -0.59067
  Beta  occ. eigenvalues --   -0.58632  -0.58316  -0.57920  -0.57135  -0.57043
  Beta  occ. eigenvalues --   -0.56648  -0.56451  -0.56051  -0.55769  -0.55384
  Beta  occ. eigenvalues --   -0.55023  -0.54738  -0.54561  -0.54050  -0.53906
  Beta  occ. eigenvalues --   -0.53557  -0.53432  -0.52882  -0.52434  -0.52111
  Beta  occ. eigenvalues --   -0.51883  -0.51860  -0.51808  -0.51378  -0.51188
  Beta  occ. eigenvalues --   -0.50913  -0.50794  -0.50157  -0.50062  -0.49727
  Beta  occ. eigenvalues --   -0.49377  -0.48906  -0.48794  -0.48577  -0.48404
  Beta  occ. eigenvalues --   -0.48251  -0.47822  -0.47726  -0.47369  -0.46950
  Beta  occ. eigenvalues --   -0.46740  -0.46497  -0.46201  -0.45849  -0.45166
  Beta  occ. eigenvalues --   -0.44432  -0.44054  -0.43214  -0.42592  -0.42438
  Beta  occ. eigenvalues --   -0.41636  -0.41491  -0.41449  -0.40589  -0.40454
  Beta  occ. eigenvalues --   -0.39967  -0.39047  -0.38808  -0.38396  -0.37474
  Beta  occ. eigenvalues --   -0.35384  -0.34473  -0.33748  -0.33471  -0.32903
  Beta  occ. eigenvalues --   -0.31246  -0.30658  -0.29248
  Beta virt. eigenvalues --   -0.20691  -0.19209  -0.18078  -0.16692  -0.14971
  Beta virt. eigenvalues --   -0.14565  -0.12557  -0.09943  -0.09595  -0.08291
  Beta virt. eigenvalues --   -0.07588  -0.06853  -0.06702  -0.06051  -0.05006

 Mulliken charges and spin densities:
               1          2
     1  C   -0.469740  -0.031334
     2  C   -0.478419  -0.077227
     3  C   -0.415755   0.009990
     4  C   -0.523870   0.037225
     5  C    0.346120   0.007640
     6  C    0.032098   0.026527
     7  C   -0.095256  -0.010171
     8  C    0.255595   0.035375
     9  C   -0.389874  -0.000177
    10  C   -0.420348  -0.002685
    11  C   -0.190002   0.001282
    12  C    0.296845   0.000128
    13  O   -0.333610   0.000094
    14  O   -0.301157   0.000044
    15  C    0.301537   0.054867
    16  C   -0.124819  -0.160306
    17  C   -0.007033   0.134884
    18  C    0.259150  -0.028959
    19  C   -0.341237   0.007948
    20  C   -0.117232  -0.398385
    21  C   -0.284558   0.548760
    22  C    0.244613  -0.004206
    23  C   -0.131550  -0.000064
    24  C    0.024971   0.005204
    25  C    0.296373  -0.023445
    26  C   -0.397100  -0.000225
    27  C   -0.137999  -0.000760
    28  C   -0.294560  -0.000349
    29  C    0.331363  -0.021650
    30  C   -0.127993   0.009348
    31  C    0.070917  -0.007182
    32  C    0.233081   0.010284
    33  C   -0.386052  -0.000943
    34  C   -0.312992   0.000442
    35  C   -0.217530  -0.000186
    36  C    0.258116   0.000000
    37  O   -0.318601   0.000009
    38  O   -0.337754  -0.000002
    39  N   -0.009424  -0.052511
    40  N   -0.209200  -0.055411
    41  N   -0.015202  -0.023512
    42  N   -0.040736  -0.027542
    43  Fe  -0.199234   1.119057
    44  N   -0.143493   0.001536
    45  C    0.034427   0.016806
    46  N    0.034840  -0.050141
    47  C   -0.121399   0.003304
    48  C   -0.060182   0.000063
    49  H    0.245152  -0.000275
    50  O   -0.413414  -0.011425
    51  H    0.186133  -0.000503
    52  H    0.175746  -0.000368
    53  H    0.199449  -0.000827
    54  H    0.161534  -0.005540
    55  H    0.137343  -0.004308
    56  H    0.125456   0.000443
    57  H    0.166328  -0.030627
    58  H    0.150133  -0.030281
    59  H    0.127129   0.028574
    60  H    0.119430   0.000124
    61  H    0.160176   0.000109
    62  H    0.158257  -0.000183
    63  H    0.140943   0.000222
    64  H    0.158264  -0.000025
    65  H    0.158229  -0.000009
    66  H    0.118364   0.000074
    67  H    0.091434  -0.001560
    68  H    0.152972   0.000203
    69  H    0.151928   0.000063
    70  H    0.131938   0.000020
    71  H    0.113871  -0.000222
    72  H    0.140031  -0.000117
    73  H    0.133203   0.000011
    74  H    0.128845   0.000044
    75  H    0.351348  -0.000069
    76  H    0.312569  -0.001441
    77  H    0.150835   0.000369
    78  H    0.131222   0.000311
    79  H    0.107389  -0.000095
    80  H    0.133509  -0.000047
    81  H    0.354007  -0.000006
    82  H    0.154694  -0.000200
    83  H    0.140291  -0.000198
    84  H    0.159005  -0.000179
    85  H    0.122676   0.001214
    86  H    0.132031   0.003281
    87  H    0.365422  -0.000003
 Sum of Mulliken charges =   1.00000   1.00000

 Dipole moment (field-independent basis, Debye):
    X=             11.4349    Y=              3.4960    Z=              3.8945  Tot=             12.5756
 Quadrupole moment (field-independent basis, Debye-Ang):
   XX=           -251.2873   YY=           -222.1050   ZZ=           -244.8242
   XY=            -45.3132   XZ=             12.6060   YZ=              4.6057

 Summary of Natural Population Analysis:

                                       Natural Population
                Natural  -----------------------------------------------
    Atom  No    Charge         Core      Valence    Rydberg      Total
 -----------------------------------------------------------------------
      C    1   -0.09927      0.99955     2.09152    0.00820     3.09927
      C    2   -0.13745      0.99954     2.12996    0.00795     3.13745
      C    3   -0.09946      0.99954     2.09224    0.00768     3.09946
      C    4   -0.07655      0.99954     2.06951    0.00751     3.07655
      C    5    0.06965      0.99945     1.92064    0.01026     2.93035
      C    6    0.01601      0.99944     1.97520    0.00935     2.98399
      C    7   -0.00383      0.99945     1.99633    0.00805     3.00383
      C    8    0.08180      0.99947     1.90824    0.01048     2.91820
      C    9   -0.32007      0.99970     2.31686    0.00351     3.32007
      C   10   -0.21049      0.99965     2.20358    0.00725     3.21049
      C   11   -0.25195      0.99962     2.24364    0.00869     3.25195
      C   12    0.38112      0.99977     1.60064    0.01847     2.61888
      O   13   -0.27944      0.99989     3.26707    0.01248     4.27944
      O   14   -0.32425      0.99978     3.30819    0.01627     4.32425
      C   15    0.08568      0.99950     1.90380    0.01102     2.91432
      C   16   -0.06337      0.99945     2.05510    0.00882     3.06337
      C   17   -0.00091      0.99943     1.99120    0.01028     3.00091
      C   18    0.07073      0.99951     1.91883    0.01093     2.92927
      C   19   -0.31320      0.99969     2.30954    0.00397     3.31320
      C   20   -0.26207      0.99965     2.25283    0.00959     3.26207
      C   21    0.08808      0.99973     1.90695    0.00523     2.91192
      C   22    0.06089      0.99948     1.92945    0.01018     2.93911
      C   23    0.01288      0.99944     1.97948    0.00820     2.98712
      C   24   -0.04937      0.99945     2.03990    0.01002     3.04937
      C   25    0.07148      0.99950     1.91824    0.01079     2.92852
      C   26   -0.32006      0.99969     2.31689    0.00348     3.32006
      C   27   -0.10400      0.99964     2.09569    0.00867     3.10400
      C   28   -0.17226      0.99972     2.16696    0.00557     3.17226
      C   29    0.05274      0.99945     1.93681    0.01100     2.94726
      C   30    0.00091      0.99942     1.99161    0.00807     2.99909
      C   31   -0.00556      0.99945     1.99698    0.00914     3.00556
      C   32    0.07042      0.99948     1.91976    0.01034     2.92958
      C   33   -0.31774      0.99970     2.31446    0.00359     3.31774
      C   34   -0.21371      0.99967     2.20709    0.00694     3.21371
      C   35   -0.25099      0.99962     2.24288    0.00848     3.25099
      C   36    0.38266      0.99975     1.59855    0.01904     2.61734
      O   37   -0.27909      0.99988     3.26666    0.01255     4.27909
      O   38   -0.34009      0.99977     3.32510    0.01521     4.34009
      N   39   -0.21341      0.99963     2.68851    0.02527     3.71341
      N   40   -0.25469      0.99962     2.73213    0.02294     3.75469
      N   41   -0.19974      0.99963     2.67695    0.02316     3.69974
      N   42   -0.19725      0.99961     2.67215    0.02548     3.69725
     Fe   43    0.75083      8.99611     3.23208    0.02098    12.24917
      N   44   -0.21520      0.99966     2.70493    0.01061     3.71520
      C   45    0.10283      0.99966     1.88612    0.01140     2.89717
      N   46   -0.18770      0.99962     2.66513    0.02295     3.68770
      C   47   -0.01908      0.99959     2.00880    0.01070     3.01908
      C   48   -0.04140      0.99963     2.03292    0.00885     3.04140
      H   49    0.21282      0.00000     0.28648    0.00069     0.28718
      O   50   -0.39170      0.99990     3.38214    0.00966     4.39170
      H   51    0.12223      0.00000     0.37723    0.00054     0.37777
      H   52    0.12001      0.00000     0.37928    0.00071     0.37999
      H   53    0.11855      0.00000     0.38067    0.00078     0.38145
      H   54    0.11729      0.00000     0.38185    0.00086     0.38271
      H   55    0.11311      0.00000     0.38619    0.00070     0.38689
      H   56    0.10956      0.00000     0.38985    0.00060     0.39044
      H   57    0.09282      0.00000     0.40635    0.00083     0.40718
      H   58    0.08606      0.00000     0.41297    0.00096     0.41394
      H   59    0.11493      0.00000     0.38437    0.00070     0.38507
      H   60    0.10968      0.00000     0.38876    0.00156     0.39032
      H   61    0.11990      0.00000     0.37928    0.00082     0.38010
      H   62    0.11478      0.00000     0.38451    0.00071     0.38522
      H   63    0.11218      0.00000     0.38712    0.00070     0.38782
      H   64    0.10512      0.00000     0.39422    0.00066     0.39488
      H   65    0.09803      0.00000     0.40116    0.00081     0.40197
      H   66    0.10149      0.00000     0.39764    0.00087     0.39851
      H   67    0.10856      0.00000     0.39029    0.00115     0.39144
      H   68    0.11515      0.00000     0.38411    0.00074     0.38485
      H   69    0.11572      0.00000     0.38354    0.00075     0.38428
      H   70    0.11068      0.00000     0.38875    0.00057     0.38932
      H   71    0.11290      0.00000     0.38628    0.00081     0.38710
      H   72    0.10912      0.00000     0.38984    0.00103     0.39088
      H   73    0.11708      0.00000     0.38227    0.00065     0.38292
      H   74    0.11548      0.00000     0.38378    0.00074     0.38452
      H   75    0.25746      0.00000     0.24140    0.00114     0.24254
      H   76    0.25310      0.00000     0.24433    0.00257     0.24690
      H   77    0.12096      0.00000     0.37814    0.00090     0.37904
      H   78    0.10747      0.00000     0.39173    0.00080     0.39253
      H   79    0.10135      0.00000     0.39781    0.00083     0.39865
      H   80    0.11805      0.00000     0.38129    0.00066     0.38195
      H   81    0.25566      0.00000     0.24322    0.00112     0.24434
      H   82    0.11546      0.00000     0.38382    0.00072     0.38454
      H   83    0.11222      0.00000     0.38707    0.00071     0.38778
      H   84    0.11796      0.00000     0.38139    0.00065     0.38204
      H   85    0.10849      0.00000     0.39019    0.00132     0.39151
      H   86    0.11258      0.00000     0.38611    0.00131     0.38742
      H   87    0.26266      0.00000     0.23619    0.00115     0.23734
 =======================================================================
   * Total *    1.00000     56.97713   125.43977    0.58309   183.00000

 Normal termination of Gaussian 16 at Fri Jan 20 14:44:16 2023.
