 Gaussian 16, Revision A.03,
 Gaussian 16:  ES64L-G16RevA.03 25-Dec-2016

 ---------------------------------------------------------------------
 # polar def2tzvp empiricaldispersion=gd3bj int=grid=ultrafine pbe1pbe
 ---------------------------------------------------------------------

 ---------
 1ccg_II_S
 ---------
 Symbolic Z-matrix:
 Charge =  0 Multiplicity = 1

                         Standard orientation:
 ---------------------------------------------------------------------
 Center     Atomic      Atomic             Coordinates (Angstroms)
 Number     Number       Type             X           Y           Z
 ---------------------------------------------------------------------
      1          6           0       -2.347125   -0.118396    0.266940
      2          6           0        1.032194   -3.442471   -0.232027
      3          6           0        4.275182    0.005496   -0.641394
      4          6           0        0.830362    3.328305   -0.394087
      5          6           0       -1.729458   -1.358472    0.171965
      6          6           0       -2.412739   -2.562007    0.162091
      7          6           0       -1.422406   -3.560337    0.041847
      8          6           0       -0.224284   -2.864462   -0.063560
      9          6           0       -1.613800   -5.082680    0.078513
     10          6           0       -3.937964   -2.694353    0.257386
     11          6           0       -4.688401   -2.763664   -1.038349
     12          6           0       -6.211037   -2.869786   -0.859397
     13          8           0       -6.711277   -3.895741   -0.394219
     14          8           0       -6.948730   -1.940814   -1.190766
     15          6           0        2.270839   -2.794451   -0.296754
     16          6           0        3.497948   -3.460056   -0.339653
     17          6           0        4.446935   -2.447990   -0.383850
     18          6           0        3.720421   -1.254340   -0.437084
     19          6           0        3.646563   -4.971920   -0.197434
     20          6           0        5.851584   -2.474407   -0.347923
     21          6           0        6.727707   -3.604065   -0.186895
     22          6           0        3.632690    1.249217   -0.689602
     23          6           0        4.271535    2.452891   -0.980752
     24          6           0        3.226112    3.397974   -0.972701
     25          6           0        2.075418    2.713403   -0.612078
     26          6           0        5.770182    2.624982   -1.340702
     27          6           0        3.199991    4.783928   -1.198846
     28          6           0        4.299397    5.698136   -1.274909
     29          6           0       -0.378363    2.728224   -0.100626
     30          6           0       -1.546122    3.392460    0.215689
     31          6           0       -2.479160    2.363206    0.386050
     32          6           0       -1.799967    1.170766    0.186393
     33          6           0       -1.739767    4.890045    0.472621
     34          6           0       -3.938533    2.514034    0.798953
     35          6           0       -4.877845    2.571364   -0.392311
     36          6           0       -6.349898    2.583826   -0.058214
     37          8           0       -7.128233    2.125592   -0.887203
     38          8           0       -6.737399    3.050903    1.010484
     39          7           0       -0.412049   -1.545883    0.032290
     40          7           0        2.415914   -1.473068   -0.268700
     41          7           0        2.310920    1.410121   -0.475905
     42          7           0       -0.533349    1.405621   -0.074350
     43         26           0        0.953183   -0.034102    0.003887
     44          7           0        2.276907   -0.277308    3.728347
     45          6           0        1.739951   -0.785012    2.659426
     46          7           0        1.249957    0.204439    1.964542
     47          6           0        1.475700    1.318734    2.588883
     48          6           0        2.151214    1.017798    3.755969
     49          1           0        2.783842   -0.783995    4.378264
     50          8           0        0.649681   -0.381031   -1.927989
     51          1           0        2.493080    1.695089    4.510491
     52          1           0        1.190018    2.295773    2.259216
     53          1           0        1.706009   -1.821978    2.397798
     54          1           0        4.036987   -5.379027   -1.106683
     55          1           0        4.316568   -5.190269    0.607748
     56          1           0        2.690355   -5.406696    0.006369
     57          1           0        7.545125   -3.747698   -0.862245
     58          1           0        6.561914   -4.300635    0.608216
     59          1           0        6.334902   -1.525789   -0.454819
     60          1           0        5.335890    0.026968   -0.780450
     61          1           0        5.911760    3.560275   -1.840784
     62          1           0        6.356326    2.606751   -0.445715
     63          1           0        6.076446    1.826653   -1.983954
     64          1           0        4.195806    6.615671   -1.815556
     65          1           0        5.224549    5.463761   -0.791110
     66          1           0        2.229263    5.213871   -1.332024
     67          1           0        0.817472    4.395915   -0.464378
     68          1           0       -2.406652    5.294310   -0.260000
     69          1           0       -2.152999    5.033893    1.449067
     70          1           0       -0.794918    5.388062    0.408275
     71          1           0       -4.045595    3.414449    1.367012
     72          1           0       -4.211252    1.682223    1.414270
     73          1           0       -4.654454    3.455456   -0.952114
     74          1           0       -4.682963    1.721900   -1.013063
     75          1           0        0.886715   -0.024905   -2.787401
     76          1           0        1.362297   -0.936939   -1.604347
     77          1           0       -4.158022   -3.581327    0.813940
     78          1           0       -4.308133   -1.855251    0.808549
     79          1           0       -4.471352   -1.883521   -1.606801
     80          1           0       -4.347969   -3.617857   -1.585488
     81          1           0       -6.909489   -1.591975   -2.084283
     82          1           0       -1.445035   -5.486987   -0.897681
     83          1           0       -0.917970   -5.513132    0.768028
     84          1           0       -2.611831   -5.309261    0.390754
     85          1           0       -3.404677   -0.151315    0.426314
     86          1           0        1.052471   -4.508431   -0.322680
     87          1           0       -7.188037    3.898366    1.028699
 ---------------------------------------------------------------------

 SCF Done:  E(RPBE1PBE) =  -3399.31414172     A.U. after   24 cycles

 The electronic state is 1-A.
 Alpha  occ. eigenvalues -- -256.31251 -30.07882 -25.90619 -25.90451 -25.90330
 Alpha  occ. eigenvalues --  -19.25785 -19.24948 -19.20948 -19.17888 -19.16664
 Alpha  occ. eigenvalues --  -14.46135 -14.39809 -14.37707 -14.36698 -14.35891
 Alpha  occ. eigenvalues --  -14.35591 -10.34854 -10.33983 -10.28336 -10.25709
 Alpha  occ. eigenvalues --  -10.24765 -10.24729 -10.24240 -10.24195 -10.23975
 Alpha  occ. eigenvalues --  -10.23891 -10.23874 -10.23495 -10.23486 -10.23438
 Alpha  occ. eigenvalues --  -10.23173 -10.23135 -10.22896 -10.22711 -10.22520
 Alpha  occ. eigenvalues --  -10.22470 -10.22447 -10.22390 -10.22380 -10.22327
 Alpha  occ. eigenvalues --  -10.22215 -10.22182 -10.22151 -10.22128 -10.22047
 Alpha  occ. eigenvalues --  -10.22011 -10.21980 -10.21922 -10.21781 -10.21723
 Alpha  occ. eigenvalues --  -10.21599 -10.21559 -10.21371  -3.42847  -2.18899
 Alpha  occ. eigenvalues --   -2.18255  -2.18073  -1.18136  -1.16882  -1.10977
 Alpha  occ. eigenvalues --   -1.05743  -1.03736  -1.02219  -1.00994  -0.99884
 Alpha  occ. eigenvalues --   -0.99094  -0.98595  -0.94692  -0.84614  -0.83857
 Alpha  occ. eigenvalues --   -0.83609  -0.83329  -0.82486  -0.81967  -0.81428
 Alpha  occ. eigenvalues --   -0.79959  -0.79537  -0.78691  -0.77442  -0.76091
 Alpha  occ. eigenvalues --   -0.75588  -0.74127  -0.72824  -0.72417  -0.71812
 Alpha  occ. eigenvalues --   -0.70406  -0.70051  -0.68868  -0.67977  -0.67269
 Alpha  occ. eigenvalues --   -0.67057  -0.66025  -0.65690  -0.64629  -0.63387
 Alpha  occ. eigenvalues --   -0.62340  -0.61086  -0.59380  -0.58917  -0.58561
 Alpha  occ. eigenvalues --   -0.57036  -0.55798  -0.55132  -0.53817  -0.53208
 Alpha  occ. eigenvalues --   -0.53009  -0.52805  -0.52598  -0.52401  -0.51523
 Alpha  occ. eigenvalues --   -0.50708  -0.50050  -0.49775  -0.49308  -0.49111
 Alpha  occ. eigenvalues --   -0.48747  -0.48706  -0.48378  -0.47398  -0.46556
 Alpha  occ. eigenvalues --   -0.46150  -0.46091  -0.45441  -0.45234  -0.45086
 Alpha  occ. eigenvalues --   -0.44968  -0.44858  -0.44627  -0.44372  -0.43977
 Alpha  occ. eigenvalues --   -0.43808  -0.43500  -0.43222  -0.42924  -0.42446
 Alpha  occ. eigenvalues --   -0.42288  -0.41870  -0.41678  -0.41480  -0.41335
 Alpha  occ. eigenvalues --   -0.40699  -0.40399  -0.39970  -0.39580  -0.39501
 Alpha  occ. eigenvalues --   -0.38981  -0.38906  -0.38682  -0.38177  -0.38093
 Alpha  occ. eigenvalues --   -0.37629  -0.37270  -0.36951  -0.36620  -0.36554
 Alpha  occ. eigenvalues --   -0.35987  -0.35930  -0.35218  -0.35060  -0.34792
 Alpha  occ. eigenvalues --   -0.34256  -0.33975  -0.33543  -0.33298  -0.32028
 Alpha  occ. eigenvalues --   -0.31903  -0.30634  -0.30588  -0.30338  -0.29730
 Alpha  occ. eigenvalues --   -0.28278  -0.27951  -0.27687  -0.26855  -0.25912
 Alpha  occ. eigenvalues --   -0.24006  -0.23869  -0.22356  -0.21508  -0.20910
 Alpha  occ. eigenvalues --   -0.19728  -0.19359  -0.19094  -0.18724
 Alpha virt. eigenvalues --   -0.08731  -0.08292  -0.05086  -0.02698  -0.01425
 Alpha virt. eigenvalues --    0.00257   0.00559   0.01011   0.01766   0.02575
 Alpha virt. eigenvalues --    0.03133   0.03728   0.03855   0.03896   0.04501

 Mulliken charges:
               1
     1  C   -0.473821
     2  C   -0.489790
     3  C   -0.425283
     4  C   -0.528677
     5  C    0.331585
     6  C    0.026296
     7  C   -0.094530
     8  C    0.250649
     9  C   -0.407434
    10  C   -0.433696
    11  C   -0.179858
    12  C    0.293121
    13  O   -0.348044
    14  O   -0.304942
    15  C    0.310111
    16  C   -0.121868
    17  C   -0.017859
    18  C    0.254606
    19  C   -0.348822
    20  C   -0.110899
    21  C   -0.347502
    22  C    0.229250
    23  C   -0.130525
    24  C    0.018046
    25  C    0.292942
    26  C   -0.410025
    27  C   -0.131302
    28  C   -0.333036
    29  C    0.326365
    30  C   -0.130200
    31  C    0.066914
    32  C    0.216974
    33  C   -0.404496
    34  C   -0.321649
    35  C   -0.212985
    36  C    0.256674
    37  O   -0.331349
    38  O   -0.337788
    39  N   -0.030995
    40  N   -0.226406
    41  N   -0.030610
    42  N   -0.061308
    43  Fe  -0.191544
    44  N   -0.159237
    45  C    0.018777
    46  N    0.012066
    47  C   -0.121273
    48  C   -0.082451
    49  H    0.223731
    50  O   -0.445998
    51  H    0.154473
    52  H    0.154178
    53  H    0.179810
    54  H    0.143183
    55  H    0.126268
    56  H    0.118437
    57  H    0.143417
    58  H    0.132332
    59  H    0.116041
    60  H    0.100214
    61  H    0.148597
    62  H    0.144553
    63  H    0.131889
    64  H    0.134891
    65  H    0.142080
    66  H    0.105601
    67  H    0.072781
    68  H    0.136128
    69  H    0.137523
    70  H    0.127495
    71  H    0.099212
    72  H    0.134205
    73  H    0.124350
    74  H    0.130899
    75  H    0.323061
    76  H    0.305779
    77  H    0.136848
    78  H    0.126838
    79  H    0.108147
    80  H    0.124289
    81  H    0.350742
    82  H    0.140728
    83  H    0.131785
    84  H    0.144432
    85  H    0.100908
    86  H    0.109306
    87  H    0.356675
 Sum of Mulliken charges =  -0.00000

 Dipole moment (field-independent basis, Debye):
    X=              5.3076    Y=              3.4515    Z=              3.2552  Tot=              7.1190
 Quadrupole moment (field-independent basis, Debye-Ang):
   XX=           -325.9537   YY=           -277.8600   ZZ=           -262.5786
   XY=            -43.2999   XZ=             13.7243   YZ=              5.7373

  Exact polarizability: 864.430 -21.379 801.809 -33.807 -22.274 327.329
 Approx polarizability:1485.030 -50.4091503.394 -82.025 -46.654 540.892

 Normal termination of Gaussian 16 at Sun Jan 15 17:36:11 2023.
