 Gaussian 16, Revision A.03,
 Gaussian 16:  AM64L-G16RevA.03 25-Dec-2016

 ----------------------------------------------------------------------
 # PBE1PBE/def2TZVP empiricaldispersion=GD3BJ int=(grid=ultrafine) geom
 =check pop=nbo
 ----------------------------------------------------------------------

 ----------
 1ccg_III_H
 ----------
 Structure from the checkpoint file:  "1ccg_III_H.chk"
 Charge =  1 Multiplicity = 6

                         Standard orientation:
 ---------------------------------------------------------------------
 Center     Atomic      Atomic             Coordinates (Angstroms)
 Number     Number       Type             X           Y           Z
 ---------------------------------------------------------------------
      1          6           0       -2.347125   -0.118396    0.266940
      2          6           0        1.032194   -3.442471   -0.232027
      3          6           0        4.275182    0.005496   -0.641394
      4          6           0        0.830362    3.328305   -0.394087
      5          6           0       -1.729458   -1.358472    0.171965
      6          6           0       -2.412739   -2.562007    0.162091
      7          6           0       -1.422406   -3.560337    0.041847
      8          6           0       -0.224284   -2.864462   -0.063560
      9          6           0       -1.613800   -5.082680    0.078513
     10          6           0       -3.937964   -2.694353    0.257386
     11          6           0       -4.688401   -2.763664   -1.038349
     12          6           0       -6.211037   -2.869786   -0.859397
     13          8           0       -6.711277   -3.895741   -0.394219
     14          8           0       -6.948730   -1.940814   -1.190766
     15          6           0        2.270839   -2.794451   -0.296754
     16          6           0        3.497948   -3.460056   -0.339653
     17          6           0        4.446935   -2.447990   -0.383850
     18          6           0        3.720421   -1.254340   -0.437084
     19          6           0        3.646563   -4.971920   -0.197434
     20          6           0        5.851584   -2.474407   -0.347923
     21          6           0        6.727707   -3.604065   -0.186895
     22          6           0        3.632690    1.249217   -0.689602
     23          6           0        4.271535    2.452891   -0.980752
     24          6           0        3.226112    3.397974   -0.972701
     25          6           0        2.075418    2.713403   -0.612078
     26          6           0        5.770182    2.624982   -1.340702
     27          6           0        3.199991    4.783928   -1.198846
     28          6           0        4.299397    5.698136   -1.274909
     29          6           0       -0.378363    2.728224   -0.100626
     30          6           0       -1.546122    3.392460    0.215689
     31          6           0       -2.479160    2.363206    0.386050
     32          6           0       -1.799967    1.170766    0.186393
     33          6           0       -1.739767    4.890045    0.472621
     34          6           0       -3.938533    2.514034    0.798953
     35          6           0       -4.877845    2.571364   -0.392311
     36          6           0       -6.349898    2.583826   -0.058214
     37          8           0       -7.128233    2.125592   -0.887203
     38          8           0       -6.737399    3.050903    1.010484
     39          7           0       -0.412049   -1.545883    0.032290
     40          7           0        2.415914   -1.473068   -0.268700
     41          7           0        2.310920    1.410121   -0.475905
     42          7           0       -0.533349    1.405621   -0.074350
     43         26           0        0.953183   -0.034102    0.003887
     44          7           0        2.276907   -0.277308    3.728347
     45          6           0        1.739951   -0.785012    2.659426
     46          7           0        1.249957    0.204439    1.964542
     47          6           0        1.475700    1.318734    2.588883
     48          6           0        2.151214    1.017798    3.755969
     49          1           0        2.783842   -0.783995    4.378264
     50          8           0        0.649681   -0.381031   -1.927989
     51          1           0        2.493080    1.695089    4.510491
     52          1           0        1.190018    2.295773    2.259216
     53          1           0        1.706009   -1.821978    2.397798
     54          1           0        4.036987   -5.379027   -1.106683
     55          1           0        4.316568   -5.190269    0.607748
     56          1           0        2.690355   -5.406696    0.006369
     57          1           0        7.545125   -3.747698   -0.862245
     58          1           0        6.561914   -4.300635    0.608216
     59          1           0        6.334902   -1.525789   -0.454819
     60          1           0        5.335890    0.026968   -0.780450
     61          1           0        5.911760    3.560275   -1.840784
     62          1           0        6.356326    2.606751   -0.445715
     63          1           0        6.076446    1.826653   -1.983954
     64          1           0        4.195806    6.615671   -1.815556
     65          1           0        5.224549    5.463761   -0.791110
     66          1           0        2.229263    5.213871   -1.332024
     67          1           0        0.817472    4.395915   -0.464378
     68          1           0       -2.406652    5.294310   -0.260000
     69          1           0       -2.152999    5.033893    1.449067
     70          1           0       -0.794918    5.388062    0.408275
     71          1           0       -4.045595    3.414449    1.367012
     72          1           0       -4.211252    1.682223    1.414270
     73          1           0       -4.654454    3.455456   -0.952114
     74          1           0       -4.682963    1.721900   -1.013063
     75          1           0        0.886715   -0.024905   -2.787401
     76          1           0        1.362297   -0.936939   -1.604347
     77          1           0       -4.158022   -3.581327    0.813940
     78          1           0       -4.308133   -1.855251    0.808549
     79          1           0       -4.471352   -1.883521   -1.606801
     80          1           0       -4.347969   -3.617857   -1.585488
     81          1           0       -6.909489   -1.591975   -2.084283
     82          1           0       -1.445035   -5.486987   -0.897681
     83          1           0       -0.917970   -5.513132    0.768028
     84          1           0       -2.611831   -5.309261    0.390754
     85          1           0       -3.404677   -0.151315    0.426314
     86          1           0        1.052471   -4.508431   -0.322680
     87          1           0       -7.188037    3.898366    1.028699
 ---------------------------------------------------------------------

 SCF Done:  E(UPBE1PBE) =  -3399.12135768     A.U. after   42 cycles

 Alpha virt. eigenvalues --    0.52434   0.52493   0.52910   0.53177   0.53278
 Alpha virt. eigenvalues --    0.53505   0.53966   0.54121   0.54233   0.54573
 Alpha virt. eigenvalues --    0.54668   0.54896   0.55124   0.55614   0.55844

  Beta  occ. eigenvalues -- -256.57210 -30.30249 -26.13486 -26.13449 -26.13410
  Beta  occ. eigenvalues --  -19.33589 -19.32540 -19.31735 -19.24822 -19.23608
  Beta  occ. eigenvalues --  -14.57548 -14.51907 -14.49177 -14.48068 -14.47339
  Beta  occ. eigenvalues --  -14.47058 -10.41950 -10.41079 -10.40567 -10.37017
  Beta  occ. eigenvalues --  -10.36275 -10.36128 -10.35984 -10.35692 -10.35444
  Beta  occ. eigenvalues --  -10.35328 -10.35056 -10.35015 -10.34898 -10.33708
  Beta  occ. eigenvalues --  -10.33568 -10.33536 -10.33294 -10.33175 -10.33094
  Beta  occ. eigenvalues --  -10.33049 -10.33046 -10.32980 -10.32835 -10.32796
  Beta  occ. eigenvalues --  -10.32705 -10.32680 -10.32551 -10.32462 -10.31830
  Beta  occ. eigenvalues --  -10.31404 -10.31266 -10.31092 -10.31030 -10.30877
  Beta  occ. eigenvalues --  -10.30768 -10.30493 -10.30426  -3.59424  -2.34060
  Beta  occ. eigenvalues --   -2.33694  -2.33558  -1.24938  -1.23709  -1.22705
  Beta  occ. eigenvalues --   -1.18836  -1.12618  -1.11461  -1.10659  -1.10621
  Beta  occ. eigenvalues --   -1.10134  -1.09114  -1.06703  -0.95587  -0.94346
  Beta  occ. eigenvalues --   -0.93429  -0.93296  -0.92893  -0.92785  -0.92198
  Beta  occ. eigenvalues --   -0.91566  -0.89362  -0.88213  -0.87439  -0.86614
  Beta  occ. eigenvalues --   -0.86129  -0.84232  -0.82544  -0.82247  -0.81804
  Beta  occ. eigenvalues --   -0.80553  -0.79603  -0.78382  -0.77788  -0.77237
  Beta  occ. eigenvalues --   -0.76580  -0.76427  -0.74747  -0.74288  -0.73694
  Beta  occ. eigenvalues --   -0.72798  -0.72548  -0.71462  -0.70182  -0.69976
  Beta  occ. eigenvalues --   -0.67566  -0.66446  -0.65763  -0.64508  -0.63753
  Beta  occ. eigenvalues --   -0.63225  -0.63025  -0.61737  -0.61218  -0.60912
  Beta  occ. eigenvalues --   -0.60722  -0.60335  -0.59957  -0.59894  -0.58794
  Beta  occ. eigenvalues --   -0.58562  -0.58033  -0.57711  -0.57035  -0.56832
  Beta  occ. eigenvalues --   -0.56622  -0.56413  -0.55966  -0.55654  -0.55323
  Beta  occ. eigenvalues --   -0.54916  -0.54647  -0.54435  -0.54021  -0.53870
  Beta  occ. eigenvalues --   -0.53563  -0.53411  -0.52870  -0.52441  -0.52039
  Beta  occ. eigenvalues --   -0.51867  -0.51753  -0.51688  -0.51373  -0.51168
  Beta  occ. eigenvalues --   -0.50789  -0.50755  -0.50089  -0.49972  -0.49440
  Beta  occ. eigenvalues --   -0.49162  -0.48906  -0.48677  -0.48377  -0.48130
  Beta  occ. eigenvalues --   -0.48087  -0.47754  -0.47594  -0.47308  -0.46934
  Beta  occ. eigenvalues --   -0.46500  -0.46474  -0.46085  -0.45832  -0.45125
  Beta  occ. eigenvalues --   -0.44356  -0.44006  -0.42937  -0.42459  -0.42277
  Beta  occ. eigenvalues --   -0.41515  -0.41168  -0.40713  -0.40547  -0.39132
  Beta  occ. eigenvalues --   -0.38956  -0.38539  -0.37260  -0.35424  -0.34438
  Beta  occ. eigenvalues --   -0.33898  -0.33636  -0.32685  -0.31398  -0.30454
  Beta  occ. eigenvalues --   -0.29680
  Beta virt. eigenvalues --   -0.21773  -0.21594  -0.20594  -0.18662  -0.18383
  Beta virt. eigenvalues --   -0.15260  -0.14759  -0.13724  -0.12605  -0.09718
  Beta virt. eigenvalues --   -0.09556  -0.08327  -0.07448  -0.06778  -0.06535

 Mulliken charges and spin densities:
               1          2
     1  C   -0.481604  -0.010362
     2  C   -0.487428  -0.004147
     3  C   -0.427912  -0.020986
     4  C   -0.532135  -0.018329
     5  C    0.355030   0.012187
     6  C    0.033066   0.017613
     7  C   -0.089389   0.023288
     8  C    0.267802   0.006959
     9  C   -0.389861   0.000150
    10  C   -0.420110   0.000013
    11  C   -0.190375   0.000562
    12  C    0.296901   0.000095
    13  O   -0.333493   0.000070
    14  O   -0.301166   0.000047
    15  C    0.314602   0.002427
    16  C   -0.119966   0.045062
    17  C    0.000470  -0.008734
    18  C    0.268633   0.019095
    19  C   -0.341117  -0.000985
    20  C   -0.128333   0.057250
    21  C   -0.289087  -0.067817
    22  C    0.251625   0.019837
    23  C   -0.127390   0.014675
    24  C    0.025792   0.027682
    25  C    0.308698   0.009248
    26  C   -0.397147   0.000218
    27  C   -0.136636  -0.027059
    28  C   -0.291347   0.045638
    29  C    0.348976   0.012342
    30  C   -0.124086   0.020731
    31  C    0.073192   0.018368
    32  C    0.241125   0.014789
    33  C   -0.385687   0.000751
    34  C   -0.312881  -0.000098
    35  C   -0.217804   0.000807
    36  C    0.258129   0.000096
    37  O   -0.318374   0.000232
    38  O   -0.337681   0.000006
    39  N   -0.055048   0.073049
    40  N   -0.256334   0.058575
    41  N   -0.064770   0.061630
    42  N   -0.094605   0.076090
    43  Fe  -0.019125   4.367253
    44  N   -0.144631   0.003465
    45  C    0.033494   0.016083
    46  N    0.006469   0.045586
    47  C   -0.119158   0.001279
    48  C   -0.061880   0.008792
    49  H    0.243775   0.001245
    50  O   -0.421595   0.050766
    51  H    0.184555   0.000766
    52  H    0.173400   0.001562
    53  H    0.198401   0.000354
    54  H    0.161631   0.001621
    55  H    0.137932   0.001215
    56  H    0.125422  -0.000076
    57  H    0.167769   0.003975
    58  H    0.151081   0.003874
    59  H    0.127795  -0.003813
    60  H    0.119183   0.000110
    61  H    0.159759   0.000386
    62  H    0.158809   0.000432
    63  H    0.141836   0.000367
    64  H    0.159023  -0.002108
    65  H    0.159138  -0.002038
    66  H    0.119163   0.001748
    67  H    0.090682   0.000136
    68  H    0.153355   0.000667
    69  H    0.152243   0.000652
    70  H    0.132211  -0.000024
    71  H    0.113745   0.000501
    72  H    0.140324   0.000228
    73  H    0.133184  -0.000018
    74  H    0.129119   0.000004
    75  H    0.346283   0.010072
    76  H    0.302245   0.002341
    77  H    0.150686   0.000370
    78  H    0.131301   0.000179
    79  H    0.107626   0.000020
    80  H    0.133552  -0.000016
    81  H    0.354047  -0.000004
    82  H    0.155400   0.000877
    83  H    0.140951   0.000541
    84  H    0.158998   0.000334
    85  H    0.122326  -0.000490
    86  H    0.131707  -0.000283
    87  H    0.365496   0.000002
 Sum of Mulliken charges =   1.00000   5.00000

 Dipole moment (field-independent basis, Debye):
    X=             11.2897    Y=              3.7069    Z=              3.8185  Tot=             12.4812
 Quadrupole moment (field-independent basis, Debye-Ang):
   XX=           -252.3126   YY=           -221.5723   ZZ=           -246.8551
   XY=            -44.2812   XZ=             12.1627   YZ=              4.1924

 Summary of Natural Population Analysis:

                                       Natural Population
                Natural  -----------------------------------------------
    Atom  No    Charge         Core      Valence    Rydberg      Total
 -----------------------------------------------------------------------
      C    1   -0.08598      0.99955     2.07862    0.00781     3.08598
      C    2   -0.09852      0.99950     2.09165    0.00738     3.09852
      C    3   -0.10519      0.99954     2.09825    0.00740     3.10519
      C    4   -0.09310      0.99953     2.08638    0.00719     3.09310
      C    5    0.07351      0.99944     1.91693    0.01013     2.92649
      C    6    0.01023      0.99944     1.98096    0.00938     2.98977
      C    7    0.02251      0.99929     1.96728    0.01092     2.97749
      C    8    0.06660      0.99947     1.92341    0.01053     2.93340
      C    9   -0.32164      0.99970     2.31853    0.00340     3.32164
      C   10   -0.20995      0.99965     2.20309    0.00722     3.20995
      C   11   -0.25213      0.99962     2.24384    0.00867     3.25213
      C   12    0.38112      0.99977     1.60065    0.01846     2.61888
      O   13   -0.27939      0.99989     3.26703    0.01248     4.27939
      O   14   -0.32424      0.99978     3.30818    0.01627     4.32424
      C   15    0.06506      0.99949     1.92507    0.01039     2.93494
      C   16    0.03405      0.99944     1.95790    0.00861     2.96595
      C   17   -0.05457      0.99944     2.04503    0.01010     3.05457
      C   18    0.09322      0.99950     1.89676    0.01052     2.90678
      C   19   -0.31719      0.99970     2.31367    0.00383     3.31719
      C   20   -0.07550      0.99964     2.06670    0.00915     3.07550
      C   21   -0.19665      0.99973     2.19069    0.00623     3.19665
      C   22    0.07341      0.99947     1.91716    0.00996     2.92659
      C   23    0.02099      0.99944     1.97153    0.00804     2.97901
      C   24   -0.02917      0.99927     2.01712    0.01278     3.02917
      C   25    0.08339      0.99949     1.90616    0.01095     2.91661
      C   26   -0.32031      0.99969     2.31718    0.00343     3.32031
      C   27   -0.11703      0.99964     2.10883    0.00855     3.11703
      C   28   -0.14859      0.99972     2.14351    0.00535     3.14859
      C   29    0.06695      0.99944     1.92322    0.01039     2.93305
      C   30    0.00918      0.99941     1.98326    0.00815     2.99082
      C   31    0.00932      0.99945     1.98220    0.00903     2.99068
      C   32    0.07521      0.99946     1.91515    0.01018     2.92479
      C   33   -0.31773      0.99970     2.31447    0.00356     3.31773
      C   34   -0.21420      0.99967     2.20757    0.00696     3.21420
      C   35   -0.25044      0.99962     2.24235    0.00846     3.25044
      C   36    0.38270      0.99975     1.59852    0.01903     2.61730
      O   37   -0.27884      0.99988     3.26641    0.01254     4.27884
      O   38   -0.34005      0.99977     3.32507    0.01521     4.34005
      N   39   -0.17406      0.99965     2.65140    0.02301     3.67406
      N   40   -0.21442      0.99965     2.69332    0.02145     3.71442
      N   41   -0.17903      0.99966     2.65763    0.02174     3.67903
      N   42   -0.16427      0.99964     2.64199    0.02264     3.66427
     Fe   43    2.44534      8.99601     1.52536    0.03330    10.55466
      N   44   -0.21292      0.99966     2.70311    0.01014     3.71292
      C   45    0.10514      0.99963     1.88409    0.01115     2.89486
      N   46   -0.16929      0.99965     2.64774    0.02190     3.66929
      C   47   -0.01684      0.99956     2.00687    0.01042     3.01684
      C   48   -0.03573      0.99962     2.02755    0.00856     3.03573
      H   49    0.21276      0.00000     0.28655    0.00069     0.28724
      O   50   -0.37177      0.99990     3.35715    0.01472     4.37177
      H   51    0.12207      0.00000     0.37741    0.00052     0.37793
      H   52    0.12023      0.00000     0.37906    0.00071     0.37977
      H   53    0.11940      0.00000     0.37984    0.00076     0.38060
      H   54    0.12130      0.00000     0.37790    0.00080     0.37870
      H   55    0.11597      0.00000     0.38336    0.00067     0.38403
      H   56    0.10940      0.00000     0.39001    0.00059     0.39060
      H   57    0.10738      0.00000     0.39187    0.00074     0.39262
      H   58    0.10002      0.00000     0.39908    0.00090     0.39998
      H   59    0.10298      0.00000     0.39627    0.00076     0.39702
      H   60    0.11066      0.00000     0.38775    0.00160     0.38934
      H   61    0.11979      0.00000     0.37941    0.00080     0.38021
      H   62    0.11531      0.00000     0.38400    0.00069     0.38469
      H   63    0.11262      0.00000     0.38669    0.00069     0.38738
      H   64    0.10453      0.00000     0.39481    0.00066     0.39547
      H   65    0.09747      0.00000     0.40172    0.00081     0.40253
      H   66    0.10239      0.00000     0.39673    0.00088     0.39761
      H   67    0.10937      0.00000     0.38947    0.00116     0.39063
      H   68    0.11571      0.00000     0.38356    0.00073     0.38429
      H   69    0.11616      0.00000     0.38311    0.00074     0.38384
      H   70    0.11079      0.00000     0.38864    0.00057     0.38921
      H   71    0.11310      0.00000     0.38609    0.00081     0.38690
      H   72    0.10946      0.00000     0.38953    0.00101     0.39054
      H   73    0.11703      0.00000     0.38232    0.00065     0.38297
      H   74    0.11553      0.00000     0.38373    0.00074     0.38447
      H   75    0.25973      0.00000     0.23906    0.00121     0.24027
      H   76    0.25587      0.00000     0.24245    0.00169     0.24413
      H   77    0.12084      0.00000     0.37827    0.00089     0.37916
      H   78    0.10742      0.00000     0.39179    0.00079     0.39258
      H   79    0.10141      0.00000     0.39776    0.00083     0.39859
      H   80    0.11806      0.00000     0.38129    0.00066     0.38194
      H   81    0.25567      0.00000     0.24321    0.00112     0.24433
      H   82    0.11637      0.00000     0.38292    0.00071     0.38363
      H   83    0.11284      0.00000     0.38646    0.00070     0.38716
      H   84    0.11809      0.00000     0.38126    0.00065     0.38191
      H   85    0.10880      0.00000     0.38995    0.00125     0.39120
      H   86    0.11166      0.00000     0.38699    0.00135     0.38834
      H   87    0.26269      0.00000     0.23617    0.00115     0.23731
 =======================================================================
   * Total *    3.00004     56.97663   123.43302    0.59030   180.99996

 Normal termination of Gaussian 16 at Fri Jan 27 21:23:01 2023.
