 Gaussian 16, Revision A.03,
 Gaussian 16:  ES64L-G16RevA.03 25-Dec-2016

 ----------------------------------------------------------------------
 # PBE1PBE/def2TZVP empiricaldispersion=GD3BJ scf=maxcycle=999 geom=che
 ck guess=read pop=nbo
 ----------------------------------------------------------------------

 ---------
 1cck_II_Q
 ---------
 Structure from the checkpoint file:  "1cck_II_Q.chk"
 Charge =  0 Multiplicity = 5

                         Standard orientation:
 ---------------------------------------------------------------------
 Center     Atomic      Atomic             Coordinates (Angstroms)
 Number     Number       Type             X           Y           Z
 ---------------------------------------------------------------------
      1          6           0       -1.368806   -2.208983    4.940654
      2          6           0       -1.479203   -1.211500    3.781960
      3          7           0       -2.075098   -0.026779    3.757533
      4          6           0       -0.927204   -1.363969    2.536433
      5          6           0       -1.897537    0.526963    2.588139
      6          7           0       -1.195197   -0.293121    1.831894
      7          1           0       -2.719374    0.301471    4.407650
      8         26           0       -0.940744    0.109620   -0.143438
      9          6           0        2.380381    0.118184    0.088961
     10          6           0       -1.008055    3.489105   -0.163676
     11          6           0       -4.289239    0.101342   -0.725102
     12          6           0       -0.862758   -3.218087   -0.697857
     13          7           0        0.444264    1.573916    0.027429
     14          6           0        1.762538    1.374358    0.093648
     15          6           0        2.423966    2.583209    0.169359
     16          6           0        1.429592    3.569364    0.162103
     17          6           0        0.247385    2.895532   -0.008704
     18          6           0        1.593570    5.074121    0.352848
     19          6           0        3.936172    2.741186    0.300432
     20          6           0        4.689093    2.756661   -1.005189
     21          6           0        6.204857    2.885166   -0.837538
     22          8           0        6.695761    3.841906   -0.231702
     23          8           0        6.942937    2.027706   -1.328503
     24          7           0       -2.447189    1.556402   -0.174801
     25          6           0       -2.260885    2.870721   -0.217065
     26          6           0       -3.473618    3.561387   -0.266798
     27          6           0       -4.443870    2.558728   -0.386106
     28          6           0       -3.738046    1.355687   -0.441770
     29          6           0       -3.575034    5.087424   -0.105985
     30          6           0       -5.840408    2.620391   -0.367901
     31          6           0       -6.253880    3.929699   -0.648392
     32          7           0       -2.340887   -1.320041   -0.625772
     33          6           0       -3.663379   -1.150258   -0.829661
     34          6           0       -4.316749   -2.344584   -1.157791
     35          6           0       -3.274860   -3.278976   -1.227492
     36          6           0       -2.116573   -2.606978   -0.840503
     37          6           0       -5.813172   -2.519527   -1.491839
     38          6           0       -3.249795   -4.636576   -1.593382
     39          6           0       -4.345803   -5.527297   -1.807379
     40          7           0        0.530323   -1.345911   -0.275375
     41          6           0        0.348929   -2.656899   -0.388897
     42          6           0        1.509016   -3.353596   -0.119634
     43          6           0        2.465142   -2.370638    0.132407
     44          6           0        1.818935   -1.157387   -0.020547
     45          6           0        1.647940   -4.853090    0.019009
     46          6           0        3.907440   -2.594309    0.555166
     47          6           0        4.849139   -2.721200   -0.635239
     48          6           0        6.315647   -2.656009   -0.273219
     49          8           0        7.073200   -2.162660   -1.085880
     50          8           0        6.716690   -3.091898    0.804733
     51          8           0       -0.662430    0.698115   -2.271724
     52          1           0        7.471353    4.285507   -0.582807
     53          1           0        4.479424    1.848728   -1.531113
     54          1           0        4.339267    3.580593   -1.591411
     55          1           0        4.135385    3.658144    0.814634
     56          1           0        4.308742    1.932740    0.894155
     57          1           0        1.424046    5.572307   -0.578803
     58          1           0        0.886101    5.421070    1.076736
     59          1           0        2.585566    5.284342    0.694388
     60          1           0       -1.011017    4.555357   -0.253102
     61          1           0       -3.933272    5.519060   -1.017168
     62          1           0       -4.253341    5.318019    0.688764
     63          1           0       -2.609053    5.486983    0.122341
     64          1           0       -6.197540    2.332978    0.598924
     65          1           0       -6.557990    4.409652    0.258285
     66          1           0       -5.442874    4.473947   -1.085385
     67          1           0       -5.347013    0.095530   -0.886291
     68          1           0       -5.953727   -3.432580   -2.031726
     69          1           0       -6.379838   -2.550683   -0.584745
     70          1           0       -6.143517   -1.696616   -2.090663
     71          1           0       -0.897122    0.389467   -3.149935
     72          1           0       -1.372329    1.242562   -1.923556
     73          1           0       -4.996915   -5.502004   -0.958667
     74          1           0       -4.885786   -5.225119   -2.680309
     75          1           0       -2.656723   -5.110818   -0.839552
     76          1           0       -0.849985   -4.276739   -0.852753
     77          1           0        2.317510   -5.220073   -0.730591
     78          1           0        2.035122   -5.087277    0.988621
     79          1           0        0.689484   -5.312870   -0.102907
     80          1           0        3.446003    0.137299    0.183753
     81          1           0        3.962406   -3.490703    1.136851
     82          1           0        4.222757   -1.769406    1.159327
     83          1           0        4.660182   -3.656450   -1.119493
     84          1           0        4.634000   -1.931215   -1.324106
     85          1           0        7.204886   -3.917874    0.836796
     86          1           0       -2.262267    1.488441    2.292450
     87          1           0       -0.371839   -2.213461    2.197564
     88          1           0       -0.663531   -2.972859    4.687710
     89          1           0       -1.040319   -1.697718    5.821338
     90          1           0       -2.325508   -2.652647    5.121719
 ---------------------------------------------------------------------

 SCF Done:  E(UPBE1PBE) =  -3438.46818715     A.U. after    1 cycles

 Alpha virt. eigenvalues --    0.71844   0.72176   0.72398   0.72755   0.73021
 Alpha virt. eigenvalues --    0.73266   0.73677   0.73708   0.74474   0.74723
 Alpha virt. eigenvalues --    0.74897   0.75099   0.75406   0.75917   0.76042

  Beta  occ. eigenvalues -- -256.32022 -30.06383 -25.90358 -25.89583 -25.88029
  Beta  occ. eigenvalues --  -19.25399 -19.24679 -19.20152 -19.16563 -19.16282
  Beta  occ. eigenvalues --  -14.45467 -14.38237 -14.37068 -14.36962 -14.36009
  Beta  occ. eigenvalues --  -14.35230 -10.33882 -10.33460 -10.27789 -10.26289
  Beta  occ. eigenvalues --  -10.24443 -10.24350 -10.24036 -10.23926 -10.23746
  Beta  occ. eigenvalues --  -10.23494 -10.23430 -10.23270 -10.23166 -10.23131
  Beta  occ. eigenvalues --  -10.23056 -10.22830 -10.22468 -10.22432 -10.22311
  Beta  occ. eigenvalues --  -10.22281 -10.22224 -10.22167 -10.22108 -10.22052
  Beta  occ. eigenvalues --  -10.21944 -10.21814 -10.21735 -10.21705 -10.21669
  Beta  occ. eigenvalues --  -10.21619 -10.21546 -10.21541 -10.21442 -10.21288
  Beta  occ. eigenvalues --  -10.21285 -10.21108 -10.20993 -10.20807  -3.38840
  Beta  occ. eigenvalues --   -2.16499  -2.14582  -2.10684  -1.17173  -1.17086
  Beta  occ. eigenvalues --   -1.09282  -1.04166  -1.02907  -1.01722  -1.00588
  Beta  occ. eigenvalues --   -0.99698  -0.99232  -0.98583  -0.93347  -0.85333
  Beta  occ. eigenvalues --   -0.84082  -0.83340  -0.83274  -0.82526  -0.81747
  Beta  occ. eigenvalues --   -0.81582  -0.81252  -0.79407  -0.78581  -0.77676
  Beta  occ. eigenvalues --   -0.76140  -0.75168  -0.74132  -0.73259  -0.72742
  Beta  occ. eigenvalues --   -0.72665  -0.71924  -0.70371  -0.69568  -0.69180
  Beta  occ. eigenvalues --   -0.66940  -0.66741  -0.66690  -0.65444  -0.65075
  Beta  occ. eigenvalues --   -0.63584  -0.62185  -0.61065  -0.59048  -0.58415
  Beta  occ. eigenvalues --   -0.57552  -0.56929  -0.56566  -0.55729  -0.54781
  Beta  occ. eigenvalues --   -0.53496  -0.53117  -0.52580  -0.52261  -0.51714
  Beta  occ. eigenvalues --   -0.51255  -0.50805  -0.50320  -0.49978  -0.49766
  Beta  occ. eigenvalues --   -0.49121  -0.48681  -0.48459  -0.48382  -0.48053
  Beta  occ. eigenvalues --   -0.46862  -0.45833  -0.45792  -0.45343  -0.45145
  Beta  occ. eigenvalues --   -0.45060  -0.44692  -0.44233  -0.44144  -0.44138
  Beta  occ. eigenvalues --   -0.43810  -0.43548  -0.43305  -0.43029  -0.42769
  Beta  occ. eigenvalues --   -0.42744  -0.42540  -0.42441  -0.42245  -0.42088
  Beta  occ. eigenvalues --   -0.41435  -0.41146  -0.40818  -0.40359  -0.40204
  Beta  occ. eigenvalues --   -0.40056  -0.39762  -0.39279  -0.38935  -0.38764
  Beta  occ. eigenvalues --   -0.38484  -0.38144  -0.37706  -0.37614  -0.37270
  Beta  occ. eigenvalues --   -0.36811  -0.36515  -0.36231  -0.35656  -0.35559
  Beta  occ. eigenvalues --   -0.34954  -0.34765  -0.34119  -0.33615  -0.33558
  Beta  occ. eigenvalues --   -0.33209  -0.32686  -0.32604  -0.32130  -0.31832
  Beta  occ. eigenvalues --   -0.30767  -0.30419  -0.28582  -0.28515  -0.26947
  Beta  occ. eigenvalues --   -0.26709  -0.26480  -0.25728  -0.24666  -0.23992
  Beta  occ. eigenvalues --   -0.23241  -0.23129  -0.20355  -0.20205  -0.18771
  Beta  occ. eigenvalues --   -0.16081
  Beta virt. eigenvalues --   -0.09461  -0.08153  -0.07094  -0.05306  -0.03762
  Beta virt. eigenvalues --   -0.00704  -0.00246   0.00492   0.00616   0.01673
  Beta virt. eigenvalues --    0.02198   0.03324   0.03785   0.04317   0.04603

 Mulliken charges and spin densities:
               1          2
     1  C   -0.374666   0.001047
     2  C    0.147869   0.004413
     3  N   -0.200241   0.000705
     4  C   -0.187714   0.000032
     5  C    0.022360   0.003053
     6  N   -0.020313   0.028958
     7  H    0.222586   0.001648
     8  Fe  -0.076748   2.160342
     9  C   -0.482800  -0.031064
    10  C   -0.463829  -0.065684
    11  C   -0.480161   0.112150
    12  C   -0.487179   0.002286
    13  N   -0.011007  -0.057917
    14  C    0.299092  -0.007116
    15  C    0.066818   0.041738
    16  C   -0.100236  -0.033885
    17  C    0.238171   0.041078
    18  C   -0.404827   0.001829
    19  C   -0.426148  -0.003930
    20  C   -0.111268   0.001573
    21  C    0.224743   0.000268
    22  O   -0.329156  -0.000010
    23  O   -0.342322   0.000158
    24  N   -0.291824  -0.008551
    25  C    0.300219   0.039615
    26  C   -0.113096  -0.053689
    27  C   -0.029301   0.054433
    28  C    0.167494  -0.052738
    29  C   -0.370931   0.003081
    30  C   -0.130511  -0.101467
    31  C   -0.230883   0.123705
    32  N   -0.031565   0.026954
    33  C    0.327813  -0.093838
    34  C   -0.133402   0.324582
    35  C   -0.067720  -0.162067
    36  C    0.273558   0.021248
    37  C   -0.375136  -0.017929
    38  C   -0.031741   0.655571
    39  C   -0.329373   0.978141
    40  N   -0.126097  -0.017179
    41  C    0.287257   0.002496
    42  C   -0.109084  -0.014143
    43  C    0.027008   0.017169
    44  C    0.275299   0.000113
    45  C   -0.388462   0.000751
    46  C   -0.327424  -0.001609
    47  C   -0.208925   0.000673
    48  C    0.239826   0.000179
    49  O   -0.298600   0.000084
    50  O   -0.345026  -0.000005
    51  O   -0.518753   0.013555
    52  H    0.351776   0.000012
    53  H    0.141105  -0.000071
    54  H    0.112224  -0.000022
    55  H    0.122612   0.000449
    56  H    0.131978   0.000651
    57  H    0.138674  -0.001351
    58  H    0.135843  -0.001150
    59  H    0.127863  -0.000236
    60  H    0.114859   0.002982
    61  H    0.154784  -0.001212
    62  H    0.141614  -0.001402
    63  H    0.120897   0.000061
    64  H    0.112037   0.003349
    65  H    0.114019  -0.005628
    66  H    0.099357  -0.003019
    67  H    0.136279  -0.005422
    68  H    0.126233   0.002315
    69  H    0.143792   0.012655
    70  H    0.137834   0.010078
    71  H    0.317416   0.009163
    72  H    0.313586   0.001228
    73  H    0.133302   0.028426
    74  H    0.123576  -0.007622
    75  H    0.093441   0.008787
    76  H    0.098128   0.001166
    77  H    0.136176  -0.000561
    78  H    0.130000  -0.000389
    79  H    0.122543  -0.000139
    80  H    0.128757   0.001189
    81  H    0.099928   0.000266
    82  H    0.132996   0.000146
    83  H    0.116282   0.000040
    84  H    0.146645   0.000054
    85  H    0.353285   0.000002
    86  H    0.166037   0.002135
    87  H    0.140819   0.001943
    88  H    0.146876   0.000043
    89  H    0.134448   0.000096
    90  H    0.138335   0.000181
 Sum of Mulliken charges =  -0.00000   4.00000

 Dipole moment (field-independent basis, Debye):
    X=             -3.3760    Y=              1.1965    Z=              7.6364  Tot=              8.4346
 Quadrupole moment (field-independent basis, Debye-Ang):
   XX=           -322.1186   YY=           -260.6285   ZZ=           -277.0050
   XY=             -0.6187   XZ=             -0.6567   YZ=            -10.5750

 Summary of Natural Population Analysis:

                                       Natural Population
                Natural  -----------------------------------------------
    Atom  No    Charge         Core      Valence    Rydberg      Total
 -----------------------------------------------------------------------
      C    1   -0.31575      0.99970     2.31315    0.00289     3.31575
      C    2    0.04958      0.99956     1.94090    0.00996     2.95042
      N    3   -0.23077      0.99963     2.72023    0.01090     3.73077
      C    4   -0.02858      0.99949     2.01822    0.01087     3.02858
      C    5    0.08750      0.99968     1.90105    0.01178     2.91250
      N    6   -0.16987      0.99969     2.64679    0.02339     3.66987
      H    7    0.20543      0.00000     0.29379    0.00078     0.29457
     Fe    8    1.24402      8.99596     2.73891    0.02111    11.75598
      C    9   -0.09648      0.99956     2.08873    0.00819     3.09648
      C   10   -0.13273      0.99955     2.12488    0.00831     3.13273
      C   11   -0.05781      0.99955     2.05042    0.00785     3.05781
      C   12   -0.10550      0.99953     2.09787    0.00810     3.10550
      N   13   -0.21374      0.99966     2.68963    0.02446     3.71374
      C   14    0.05170      0.99946     1.93795    0.01089     2.94830
      C   15    0.01203      0.99943     1.97909    0.00945     2.98797
      C   16   -0.03027      0.99941     2.02238    0.00848     3.03027
      C   17    0.08139      0.99946     1.90821    0.01094     2.91861
      C   18   -0.31715      0.99970     2.31394    0.00350     3.31715
      C   19   -0.21129      0.99966     2.20529    0.00634     3.21129
      C   20   -0.24312      0.99962     2.23511    0.00840     3.24312
      C   21    0.38026      0.99978     1.60048    0.01949     2.61974
      O   22   -0.33363      0.99979     3.31949    0.01435     4.33363
      O   23   -0.29476      0.99989     3.28202    0.01285     4.29476
      N   24   -0.22834      0.99966     2.70738    0.02129     3.72834
      C   25    0.07001      0.99950     1.91929    0.01120     2.92999
      C   26   -0.02632      0.99943     2.01797    0.00892     3.02632
      C   27   -0.03162      0.99942     2.02116    0.01105     3.03162
      C   28    0.04879      0.99952     1.94048    0.01122     2.95121
      C   29   -0.31913      0.99969     2.31543    0.00401     3.31913
      C   30   -0.15494      0.99933     2.14316    0.01246     3.15494
      C   31   -0.11865      0.99940     2.10912    0.01014     3.11865
      N   32   -0.16812      0.99966     2.64497    0.02348     3.66812
      C   33    0.02218      0.99950     1.96769    0.01063     2.97782
      C   34    0.14471      0.99942     1.84760    0.00827     2.85529
      C   35   -0.09982      0.99942     2.09050    0.00990     3.09982
      C   36    0.09577      0.99951     1.89335    0.01137     2.90423
      C   37   -0.32289      0.99970     2.31985    0.00334     3.32289
      C   38    0.19879      0.99929     1.79205    0.00987     2.80121
      C   39    0.31803      0.99909     1.67827    0.00461     2.68197
      N   40   -0.20414      0.99966     2.68248    0.02200     3.70414
      C   41    0.06899      0.99946     1.92043    0.01112     2.93101
      C   42   -0.02398      0.99943     2.01587    0.00868     3.02398
      C   43   -0.00168      0.99943     1.99283    0.00941     3.00168
      C   44    0.05513      0.99948     1.93484    0.01055     2.94487
      C   45   -0.31697      0.99970     2.31352    0.00375     3.31697
      C   46   -0.21277      0.99967     2.20600    0.00709     3.21277
      C   47   -0.25059      0.99963     2.24235    0.00861     3.25059
      C   48    0.38094      0.99975     1.59979    0.01952     2.61906
      O   49   -0.27603      0.99988     3.26312    0.01303     4.27603
      O   50   -0.34338      0.99978     3.32840    0.01520     4.34338
      O   51   -0.41266      0.99993     3.40378    0.00895     4.41266
      H   52    0.25792      0.00000     0.24067    0.00141     0.24208
      H   53    0.11923      0.00000     0.38008    0.00070     0.38077
      H   54    0.11177      0.00000     0.38748    0.00075     0.38823
      H   55    0.10808      0.00000     0.39071    0.00121     0.39192
      H   56    0.10698      0.00000     0.39184    0.00118     0.39302
      H   57    0.10876      0.00000     0.39037    0.00087     0.39124
      H   58    0.10833      0.00000     0.39084    0.00083     0.39167
      H   59    0.10938      0.00000     0.38995    0.00067     0.39062
      H   60    0.10368      0.00000     0.39500    0.00132     0.39632
      H   61    0.10930      0.00000     0.38985    0.00085     0.39070
      H   62    0.11238      0.00000     0.38679    0.00083     0.38762
      H   63    0.11106      0.00000     0.38824    0.00070     0.38894
      H   64    0.10541      0.00000     0.39334    0.00125     0.39459
      H   65    0.09338      0.00000     0.40548    0.00114     0.40662
      H   66    0.08786      0.00000     0.41081    0.00133     0.41214
      H   67    0.10592      0.00000     0.39283    0.00125     0.39408
      H   68    0.11133      0.00000     0.38792    0.00075     0.38867
      H   69    0.11647      0.00000     0.38285    0.00068     0.38353
      H   70    0.11584      0.00000     0.38353    0.00064     0.38416
      H   71    0.24453      0.00000     0.25411    0.00135     0.25547
      H   72    0.24831      0.00000     0.24979    0.00190     0.25169
      H   73    0.09705      0.00000     0.40202    0.00093     0.40295
      H   74    0.07948      0.00000     0.41935    0.00118     0.42052
      H   75    0.10619      0.00000     0.39259    0.00122     0.39381
      H   76    0.10393      0.00000     0.39455    0.00152     0.39607
      H   77    0.10917      0.00000     0.38995    0.00088     0.39083
      H   78    0.10859      0.00000     0.39053    0.00088     0.39141
      H   79    0.10961      0.00000     0.38976    0.00063     0.39039
      H   80    0.10236      0.00000     0.39650    0.00114     0.39764
      H   81    0.10780      0.00000     0.39136    0.00084     0.39220
      H   82    0.10764      0.00000     0.39133    0.00103     0.39236
      H   83    0.11298      0.00000     0.38632    0.00070     0.38702
      H   84    0.11997      0.00000     0.37932    0.00071     0.38003
      H   85    0.25856      0.00000     0.24018    0.00126     0.24144
      H   86    0.11236      0.00000     0.38686    0.00078     0.38764
      H   87    0.11223      0.00000     0.38701    0.00076     0.38777
      H   88    0.11695      0.00000     0.38260    0.00045     0.38305
      H   89    0.10866      0.00000     0.39064    0.00069     0.39134
      H   90    0.10879      0.00000     0.39051    0.00070     0.39121
 =======================================================================
   * Total *    2.00000     57.97507   127.42406    0.60087   186.00000

 Normal termination of Gaussian 16 at Thu Nov  3 15:24:58 2022.
