 Gaussian 16, Revision A.03,
 Gaussian 16:  ES64L-G16RevA.03 25-Dec-2016

 ----------------------------------------------------------------------
 # PBE1PBE/def2TZVP empiricaldispersion=GD3BJ scf=maxcycle=999 geom=che
 ck pop=nbo
 ----------------------------------------------------------------------

 ----------
 1cck_III_D
 ----------
 Structure from the checkpoint file:  "1cck_III_D.chk"
 Charge =  1 Multiplicity = 2

                         Standard orientation:
 ---------------------------------------------------------------------
 Center     Atomic      Atomic             Coordinates (Angstroms)
 Number     Number       Type             X           Y           Z
 ---------------------------------------------------------------------
      1          6           0       -1.368806   -2.208983    4.940654
      2          6           0       -1.479203   -1.211500    3.781960
      3          7           0       -2.075098   -0.026779    3.757533
      4          6           0       -0.927204   -1.363969    2.536433
      5          6           0       -1.897537    0.526963    2.588139
      6          7           0       -1.195197   -0.293121    1.831894
      7          1           0       -2.719374    0.301471    4.407650
      8         26           0       -0.940744    0.109620   -0.143438
      9          6           0        2.380381    0.118184    0.088961
     10          6           0       -1.008055    3.489105   -0.163676
     11          6           0       -4.289239    0.101342   -0.725102
     12          6           0       -0.862758   -3.218087   -0.697857
     13          7           0        0.444264    1.573916    0.027429
     14          6           0        1.762538    1.374358    0.093648
     15          6           0        2.423966    2.583209    0.169359
     16          6           0        1.429592    3.569364    0.162103
     17          6           0        0.247385    2.895532   -0.008704
     18          6           0        1.593570    5.074121    0.352848
     19          6           0        3.936172    2.741186    0.300432
     20          6           0        4.689093    2.756661   -1.005189
     21          6           0        6.204857    2.885166   -0.837538
     22          8           0        6.695761    3.841906   -0.231702
     23          8           0        6.942937    2.027706   -1.328503
     24          7           0       -2.447189    1.556402   -0.174801
     25          6           0       -2.260885    2.870721   -0.217065
     26          6           0       -3.473618    3.561387   -0.266798
     27          6           0       -4.443870    2.558728   -0.386106
     28          6           0       -3.738046    1.355687   -0.441770
     29          6           0       -3.575034    5.087424   -0.105985
     30          6           0       -5.840408    2.620391   -0.367901
     31          6           0       -6.253880    3.929699   -0.648392
     32          7           0       -2.340887   -1.320041   -0.625772
     33          6           0       -3.663379   -1.150258   -0.829661
     34          6           0       -4.316749   -2.344584   -1.157791
     35          6           0       -3.274860   -3.278976   -1.227492
     36          6           0       -2.116573   -2.606978   -0.840503
     37          6           0       -5.813172   -2.519527   -1.491839
     38          6           0       -3.249795   -4.636576   -1.593382
     39          6           0       -4.345803   -5.527297   -1.807379
     40          7           0        0.530323   -1.345911   -0.275375
     41          6           0        0.348929   -2.656899   -0.388897
     42          6           0        1.509016   -3.353596   -0.119634
     43          6           0        2.465142   -2.370638    0.132407
     44          6           0        1.818935   -1.157387   -0.020547
     45          6           0        1.647940   -4.853090    0.019009
     46          6           0        3.907440   -2.594309    0.555166
     47          6           0        4.849139   -2.721200   -0.635239
     48          6           0        6.315647   -2.656009   -0.273219
     49          8           0        7.073200   -2.162660   -1.085880
     50          8           0        6.716690   -3.091898    0.804733
     51          8           0       -0.662430    0.698115   -2.271724
     52          1           0        7.471353    4.285507   -0.582807
     53          1           0        4.479424    1.848728   -1.531113
     54          1           0        4.339267    3.580593   -1.591411
     55          1           0        4.135385    3.658144    0.814634
     56          1           0        4.308742    1.932740    0.894155
     57          1           0        1.424046    5.572307   -0.578803
     58          1           0        0.886101    5.421070    1.076736
     59          1           0        2.585566    5.284342    0.694388
     60          1           0       -1.011017    4.555357   -0.253102
     61          1           0       -3.933272    5.519060   -1.017168
     62          1           0       -4.253341    5.318019    0.688764
     63          1           0       -2.609053    5.486983    0.122341
     64          1           0       -6.197540    2.332978    0.598924
     65          1           0       -6.557990    4.409652    0.258285
     66          1           0       -5.442874    4.473947   -1.085385
     67          1           0       -5.347013    0.095530   -0.886291
     68          1           0       -5.953727   -3.432580   -2.031726
     69          1           0       -6.379838   -2.550683   -0.584745
     70          1           0       -6.143517   -1.696616   -2.090663
     71          1           0       -0.897122    0.389467   -3.149935
     72          1           0       -1.372329    1.242562   -1.923556
     73          1           0       -4.996915   -5.502004   -0.958667
     74          1           0       -4.885786   -5.225119   -2.680309
     75          1           0       -2.656723   -5.110818   -0.839552
     76          1           0       -0.849985   -4.276739   -0.852753
     77          1           0        2.317510   -5.220073   -0.730591
     78          1           0        2.035122   -5.087277    0.988621
     79          1           0        0.689484   -5.312870   -0.102907
     80          1           0        3.446003    0.137299    0.183753
     81          1           0        3.962406   -3.490703    1.136851
     82          1           0        4.222757   -1.769406    1.159327
     83          1           0        4.660182   -3.656450   -1.119493
     84          1           0        4.634000   -1.931215   -1.324106
     85          1           0        7.204886   -3.917874    0.836796
     86          1           0       -2.262267    1.488441    2.292450
     87          1           0       -0.371839   -2.213461    2.197564
     88          1           0       -0.663531   -2.972859    4.687710
     89          1           0       -1.040319   -1.697718    5.821338
     90          1           0       -2.325508   -2.652647    5.121719
 ---------------------------------------------------------------------

 SCF Done:  E(UPBE1PBE) =  -3438.26022839     A.U. after  222 cycles

 Alpha virt. eigenvalues --    0.63170   0.63528   0.63591   0.63813   0.64360
 Alpha virt. eigenvalues --    0.64779   0.64978   0.65303   0.65576   0.65827
 Alpha virt. eigenvalues --    0.66017   0.66259   0.66602   0.67171   0.67448

  Beta  occ. eigenvalues -- -256.44171 -30.21050 -26.04027 -26.03649 -26.03118
  Beta  occ. eigenvalues --  -19.31735 -19.31338 -19.31158 -19.23217 -19.22871
  Beta  occ. eigenvalues --  -14.54766 -14.50028 -14.49621 -14.47885 -14.46354
  Beta  occ. eigenvalues --  -14.46342 -10.40613 -10.40254 -10.37747 -10.37529
  Beta  occ. eigenvalues --  -10.36691 -10.36480 -10.35843 -10.35777 -10.35630
  Beta  occ. eigenvalues --  -10.35359 -10.35184 -10.34352 -10.34063 -10.34021
  Beta  occ. eigenvalues --  -10.34009 -10.33857 -10.33678 -10.32937 -10.32933
  Beta  occ. eigenvalues --  -10.32669 -10.32621 -10.32539 -10.32536 -10.32326
  Beta  occ. eigenvalues --  -10.31819 -10.31662 -10.31660 -10.31567 -10.31449
  Beta  occ. eigenvalues --  -10.31436 -10.31342 -10.30892 -10.30543 -10.30451
  Beta  occ. eigenvalues --  -10.30264 -10.29893 -10.29757 -10.29481  -3.56097
  Beta  occ. eigenvalues --   -2.32647  -2.31561  -2.30621  -1.23610  -1.23567
  Beta  occ. eigenvalues --   -1.18958  -1.15113  -1.12477  -1.11131  -1.10093
  Beta  occ. eigenvalues --   -1.09517  -1.09183  -1.08263  -1.03297  -0.96605
  Beta  occ. eigenvalues --   -0.95122  -0.94594  -0.92792  -0.92357  -0.92155
  Beta  occ. eigenvalues --   -0.91820  -0.90636  -0.89477  -0.88112  -0.87453
  Beta  occ. eigenvalues --   -0.87159  -0.86011  -0.84976  -0.83224  -0.82328
  Beta  occ. eigenvalues --   -0.82006  -0.81633  -0.80350  -0.77807  -0.77410
  Beta  occ. eigenvalues --   -0.76794  -0.76521  -0.76352  -0.74395  -0.73414
  Beta  occ. eigenvalues --   -0.73143  -0.72958  -0.71490  -0.69997  -0.69328
  Beta  occ. eigenvalues --   -0.67591  -0.67066  -0.66973  -0.66186  -0.65763
  Beta  occ. eigenvalues --   -0.64697  -0.63544  -0.62779  -0.62409  -0.61099
  Beta  occ. eigenvalues --   -0.60100  -0.59517  -0.59407  -0.58879  -0.58476
  Beta  occ. eigenvalues --   -0.58168  -0.57611  -0.57430  -0.56812  -0.56374
  Beta  occ. eigenvalues --   -0.56324  -0.55774  -0.55666  -0.55485  -0.55286
  Beta  occ. eigenvalues --   -0.54970  -0.54638  -0.54103  -0.53852  -0.53618
  Beta  occ. eigenvalues --   -0.53192  -0.53086  -0.52899  -0.52659  -0.52373
  Beta  occ. eigenvalues --   -0.52293  -0.52233  -0.52009  -0.51807  -0.51562
  Beta  occ. eigenvalues --   -0.51392  -0.51013  -0.50823  -0.50676  -0.50348
  Beta  occ. eigenvalues --   -0.50025  -0.49674  -0.49402  -0.49195  -0.48863
  Beta  occ. eigenvalues --   -0.48012  -0.47766  -0.47556  -0.47133  -0.46898
  Beta  occ. eigenvalues --   -0.46601  -0.46117  -0.45707  -0.44996  -0.44871
  Beta  occ. eigenvalues --   -0.44562  -0.44470  -0.44157  -0.43876  -0.43457
  Beta  occ. eigenvalues --   -0.43109  -0.42406  -0.41403  -0.41099  -0.41091
  Beta  occ. eigenvalues --   -0.40260  -0.39369  -0.39227  -0.38392  -0.38330
  Beta  occ. eigenvalues --   -0.37220  -0.35584  -0.35149  -0.33945  -0.33652
  Beta  occ. eigenvalues --   -0.33391  -0.33072  -0.32977  -0.31705  -0.31167
  Beta  occ. eigenvalues --   -0.31107  -0.29591
  Beta virt. eigenvalues --   -0.23903  -0.18401  -0.18301  -0.16668  -0.14823
  Beta virt. eigenvalues --   -0.11471  -0.10603  -0.08436  -0.07794  -0.06938
  Beta virt. eigenvalues --   -0.06648  -0.05946  -0.05142  -0.04812  -0.04509

 Mulliken charges and spin densities:
               1          2
     1  C   -0.362587   0.000281
     2  C    0.140835   0.000342
     3  N   -0.189024  -0.000670
     4  C   -0.197132   0.001996
     5  C    0.022670  -0.003255
     6  N    0.014990  -0.004090
     7  H    0.237091  -0.000558
     8  Fe  -0.153629  -0.172946
     9  C   -0.482600  -0.059735
    10  C   -0.446310   0.038225
    11  C   -0.467159   0.110102
    12  C   -0.458547  -0.069194
    13  N   -0.008753   0.011627
    14  C    0.313238   0.046217
    15  C    0.073183  -0.056694
    16  C   -0.103974   0.043490
    17  C    0.254798  -0.030202
    18  C   -0.387381  -0.002461
    19  C   -0.417500   0.004228
    20  C   -0.119559  -0.002373
    21  C    0.227654  -0.000084
    22  O   -0.328379   0.000006
    23  O   -0.332880  -0.000563
    24  N   -0.262573   0.036523
    25  C    0.310989  -0.012104
    26  C   -0.110897  -0.049295
    27  C   -0.036242   0.034221
    28  C    0.165659  -0.060020
    29  C   -0.358749   0.003491
    30  C   -0.135739  -0.061014
    31  C   -0.203458   0.073786
    32  N   -0.004002  -0.044439
    33  C    0.333280  -0.054105
    34  C   -0.102649   0.096178
    35  C   -0.070549  -0.031372
    36  C    0.293525   0.036708
    37  C   -0.358731  -0.000230
    38  C    0.066349   0.162396
    39  C   -0.290703   0.968512
    40  N   -0.096126  -0.046255
    41  C    0.267201   0.029492
    42  C   -0.112318   0.020925
    43  C    0.029576  -0.007668
    44  C    0.289657   0.035528
    45  C   -0.373738  -0.001523
    46  C   -0.320703  -0.000112
    47  C   -0.212436  -0.000143
    48  C    0.240849  -0.000028
    49  O   -0.287013  -0.000025
    50  O   -0.344863   0.000000
    51  O   -0.511893   0.004995
    52  H    0.361689  -0.000011
    53  H    0.138986   0.000146
    54  H    0.121218   0.000042
    55  H    0.136488  -0.000591
    56  H    0.136778  -0.001220
    57  H    0.150486   0.002001
    58  H    0.144202   0.001243
    59  H    0.141863   0.000066
    60  H    0.137147  -0.001621
    61  H    0.170805  -0.001929
    62  H    0.157392  -0.001752
    63  H    0.127645   0.000222
    64  H    0.126143   0.002022
    65  H    0.134571  -0.003457
    66  H    0.103870  -0.001904
    67  H    0.157387  -0.004729
    68  H    0.133255   0.000984
    69  H    0.168380   0.004122
    70  H    0.159674   0.002794
    71  H    0.337420  -0.003238
    72  H    0.323834   0.001353
    73  H    0.180150  -0.010593
    74  H    0.156432  -0.009325
    75  H    0.137960   0.029433
    76  H    0.105833   0.004095
    77  H    0.153540   0.000996
    78  H    0.146314   0.000997
    79  H    0.116391  -0.000027
    80  H    0.149394   0.002644
    81  H    0.112517  -0.000027
    82  H    0.138961  -0.000151
    83  H    0.124281  -0.000033
    84  H    0.145008  -0.000017
    85  H    0.361530   0.000001
    86  H    0.173389  -0.000034
    87  H    0.149966  -0.000591
    88  H    0.149515  -0.000023
    89  H    0.149854   0.000027
    90  H    0.146978  -0.000022
 Sum of Mulliken charges =   1.00000   1.00000

 Dipole moment (field-independent basis, Debye):
    X=            -11.0585    Y=             -2.7940    Z=              5.5646  Tot=             12.6910
 Quadrupole moment (field-independent basis, Debye-Ang):
   XX=           -244.0072   YY=           -187.5606   ZZ=           -257.5229
   XY=             16.1774   XZ=              9.6845   YZ=             -1.3065

 Summary of Natural Population Analysis:

                                       Natural Population
                Natural  -----------------------------------------------
    Atom  No    Charge         Core      Valence    Rydberg      Total
 -----------------------------------------------------------------------
      C    1   -0.31674      0.99970     2.31412    0.00292     3.31674
      C    2    0.05661      0.99956     1.93399    0.00984     2.94339
      N    3   -0.22824      0.99964     2.71793    0.01068     3.72824
      C    4   -0.03387      0.99949     2.02388    0.01050     3.03387
      C    5    0.08590      0.99968     1.90422    0.01020     2.91410
      N    6   -0.18385      0.99965     2.65738    0.02682     3.68385
      H    7    0.20971      0.00000     0.28950    0.00080     0.29029
     Fe    8    0.11370      8.99603     3.86831    0.02196    12.88630
      C    9   -0.10607      0.99956     2.09844    0.00807     3.10607
      C   10   -0.08590      0.99954     2.07863    0.00773     3.08590
      C   11   -0.05776      0.99955     2.05042    0.00779     3.05776
      C   12   -0.12821      0.99953     2.12071    0.00797     3.12821
      N   13   -0.19888      0.99964     2.67354    0.02571     3.69888
      C   14    0.09027      0.99946     1.89976    0.01051     2.90973
      C   15   -0.01666      0.99944     2.00781    0.00942     3.01666
      C   16    0.01234      0.99942     1.98000    0.00824     2.98766
      C   17    0.06944      0.99946     1.92056    0.01054     2.93056
      C   18   -0.32030      0.99970     2.31716    0.00344     3.32030
      C   19   -0.21235      0.99966     2.20594    0.00675     3.21235
      C   20   -0.24422      0.99962     2.23617    0.00843     3.24422
      C   21    0.37884      0.99978     1.60203    0.01935     2.62116
      O   22   -0.33258      0.99979     3.31848    0.01431     4.33258
      O   23   -0.28931      0.99989     3.27659    0.01283     4.28931
      N   24   -0.21345      0.99964     2.69012    0.02369     3.71345
      C   25    0.06163      0.99949     1.92790    0.01098     2.93837
      C   26   -0.01386      0.99944     2.00573    0.00869     3.01386
      C   27   -0.03341      0.99942     2.02313    0.01086     3.03341
      C   28    0.05966      0.99951     1.92951    0.01132     2.94034
      C   29   -0.32061      0.99969     2.31699    0.00393     3.32061
      C   30   -0.14833      0.99932     2.13695    0.01206     3.14833
      C   31   -0.11776      0.99940     2.10860    0.00976     3.11776
      N   32   -0.19653      0.99966     2.67073    0.02614     3.69653
      C   33    0.04517      0.99950     1.94481    0.01053     2.95483
      C   34    0.07101      0.99943     1.92135    0.00820     2.92899
      C   35   -0.05158      0.99940     2.04226    0.00992     3.05158
      C   36    0.10330      0.99951     1.88619    0.01101     2.89670
      C   37   -0.31993      0.99969     2.31676    0.00348     3.31993
      C   38    0.04037      0.99940     1.95146    0.00877     2.95963
      C   39    0.32855      0.99907     1.66394    0.00844     2.67145
      N   40   -0.21794      0.99964     2.69215    0.02614     3.71794
      C   41    0.08136      0.99946     1.90798    0.01121     2.91864
      C   42    0.00058      0.99943     1.99178    0.00821     2.99942
      C   43   -0.00343      0.99944     1.99474    0.00925     3.00343
      C   44    0.09014      0.99948     1.89973    0.01065     2.90986
      C   45   -0.31840      0.99970     2.31500    0.00370     3.31840
      C   46   -0.21412      0.99967     2.20753    0.00692     3.21412
      C   47   -0.25003      0.99963     2.24186    0.00855     3.25003
      C   48    0.37913      0.99976     1.60173    0.01938     2.62087
      O   49   -0.26929      0.99988     3.25637    0.01304     4.26929
      O   50   -0.34259      0.99978     3.32770    0.01511     4.34259
      O   51   -0.41790      0.99992     3.40891    0.00906     4.41790
      H   52    0.26127      0.00000     0.23745    0.00127     0.23873
      H   53    0.11793      0.00000     0.38140    0.00067     0.38207
      H   54    0.11339      0.00000     0.38588    0.00072     0.38661
      H   55    0.11381      0.00000     0.38538    0.00081     0.38619
      H   56    0.10795      0.00000     0.39090    0.00115     0.39205
      H   57    0.11505      0.00000     0.38423    0.00072     0.38495
      H   58    0.11241      0.00000     0.38689    0.00070     0.38759
      H   59    0.11472      0.00000     0.38458    0.00070     0.38528
      H   60    0.10863      0.00000     0.39008    0.00129     0.39137
      H   61    0.11475      0.00000     0.38449    0.00076     0.38525
      H   62    0.11782      0.00000     0.38141    0.00076     0.38218
      H   63    0.11283      0.00000     0.38652    0.00065     0.38717
      H   64    0.10869      0.00000     0.39013    0.00118     0.39131
      H   65    0.09888      0.00000     0.40010    0.00101     0.40112
      H   66    0.08841      0.00000     0.41033    0.00126     0.41159
      H   67    0.11186      0.00000     0.38694    0.00120     0.38814
      H   68    0.11266      0.00000     0.38664    0.00070     0.38734
      H   69    0.12109      0.00000     0.37824    0.00067     0.37891
      H   70    0.12155      0.00000     0.37783    0.00062     0.37845
      H   71    0.24806      0.00000     0.25068    0.00126     0.25194
      H   72    0.24728      0.00000     0.25052    0.00220     0.25272
      H   73    0.10199      0.00000     0.39729    0.00072     0.39801
      H   74    0.08880      0.00000     0.41040    0.00080     0.41120
      H   75    0.12663      0.00000     0.37231    0.00106     0.37337
      H   76    0.10660      0.00000     0.39196    0.00144     0.39340
      H   77    0.11598      0.00000     0.38323    0.00079     0.38402
      H   78    0.11512      0.00000     0.38409    0.00079     0.38488
      H   79    0.10774      0.00000     0.39165    0.00061     0.39226
      H   80    0.10934      0.00000     0.38948    0.00118     0.39066
      H   81    0.11189      0.00000     0.38729    0.00082     0.38811
      H   82    0.10938      0.00000     0.38963    0.00099     0.39062
      H   83    0.11426      0.00000     0.38508    0.00067     0.38574
      H   84    0.11871      0.00000     0.38060    0.00069     0.38129
      H   85    0.26120      0.00000     0.23762    0.00118     0.23880
      H   86    0.11224      0.00000     0.38682    0.00094     0.38776
      H   87    0.11266      0.00000     0.38658    0.00076     0.38734
      H   88    0.11840      0.00000     0.38114    0.00046     0.38160
      H   89    0.11410      0.00000     0.38527    0.00063     0.38590
      H   90    0.11231      0.00000     0.38705    0.00064     0.38769
 =======================================================================
   * Total *    1.00000     57.97511   128.41561    0.60928   187.00000

 Normal termination of Gaussian 16 at Tue Sep  6 20:16:53 2022.
