 Gaussian 16, Revision A.03,
 Gaussian 16:  ES64L-G16RevA.03 25-Dec-2016

 ----------------------------------------------------------------------
 # PBE1PBE/def2TZVP empiricaldispersion=GD3BJ scf=maxcycle=999 geom=che
 ck pop=nbo
 ----------------------------------------------------------------------

 ----------
 1cck_III_H
 ----------
 Structure from the checkpoint file:  "1cck_III_H.chk"
 Charge =  1 Multiplicity = 6

                         Standard orientation:
 ---------------------------------------------------------------------
 Center     Atomic      Atomic             Coordinates (Angstroms)
 Number     Number       Type             X           Y           Z
 ---------------------------------------------------------------------
      1          6           0       -1.368806   -2.208983    4.940654
      2          6           0       -1.479203   -1.211500    3.781960
      3          7           0       -2.075098   -0.026779    3.757533
      4          6           0       -0.927204   -1.363969    2.536433
      5          6           0       -1.897537    0.526963    2.588139
      6          7           0       -1.195197   -0.293121    1.831894
      7          1           0       -2.719374    0.301471    4.407650
      8         26           0       -0.940744    0.109620   -0.143438
      9          6           0        2.380381    0.118184    0.088961
     10          6           0       -1.008055    3.489105   -0.163676
     11          6           0       -4.289239    0.101342   -0.725102
     12          6           0       -0.862758   -3.218087   -0.697857
     13          7           0        0.444264    1.573916    0.027429
     14          6           0        1.762538    1.374358    0.093648
     15          6           0        2.423966    2.583209    0.169359
     16          6           0        1.429592    3.569364    0.162103
     17          6           0        0.247385    2.895532   -0.008704
     18          6           0        1.593570    5.074121    0.352848
     19          6           0        3.936172    2.741186    0.300432
     20          6           0        4.689093    2.756661   -1.005189
     21          6           0        6.204857    2.885166   -0.837538
     22          8           0        6.695761    3.841906   -0.231702
     23          8           0        6.942937    2.027706   -1.328503
     24          7           0       -2.447189    1.556402   -0.174801
     25          6           0       -2.260885    2.870721   -0.217065
     26          6           0       -3.473618    3.561387   -0.266798
     27          6           0       -4.443870    2.558728   -0.386106
     28          6           0       -3.738046    1.355687   -0.441770
     29          6           0       -3.575034    5.087424   -0.105985
     30          6           0       -5.840408    2.620391   -0.367901
     31          6           0       -6.253880    3.929699   -0.648392
     32          7           0       -2.340887   -1.320041   -0.625772
     33          6           0       -3.663379   -1.150258   -0.829661
     34          6           0       -4.316749   -2.344584   -1.157791
     35          6           0       -3.274860   -3.278976   -1.227492
     36          6           0       -2.116573   -2.606978   -0.840503
     37          6           0       -5.813172   -2.519527   -1.491839
     38          6           0       -3.249795   -4.636576   -1.593382
     39          6           0       -4.345803   -5.527297   -1.807379
     40          7           0        0.530323   -1.345911   -0.275375
     41          6           0        0.348929   -2.656899   -0.388897
     42          6           0        1.509016   -3.353596   -0.119634
     43          6           0        2.465142   -2.370638    0.132407
     44          6           0        1.818935   -1.157387   -0.020547
     45          6           0        1.647940   -4.853090    0.019009
     46          6           0        3.907440   -2.594309    0.555166
     47          6           0        4.849139   -2.721200   -0.635239
     48          6           0        6.315647   -2.656009   -0.273219
     49          8           0        7.073200   -2.162660   -1.085880
     50          8           0        6.716690   -3.091898    0.804733
     51          8           0       -0.662430    0.698115   -2.271724
     52          1           0        7.471353    4.285507   -0.582807
     53          1           0        4.479424    1.848728   -1.531113
     54          1           0        4.339267    3.580593   -1.591411
     55          1           0        4.135385    3.658144    0.814634
     56          1           0        4.308742    1.932740    0.894155
     57          1           0        1.424046    5.572307   -0.578803
     58          1           0        0.886101    5.421070    1.076736
     59          1           0        2.585566    5.284342    0.694388
     60          1           0       -1.011017    4.555357   -0.253102
     61          1           0       -3.933272    5.519060   -1.017168
     62          1           0       -4.253341    5.318019    0.688764
     63          1           0       -2.609053    5.486983    0.122341
     64          1           0       -6.197540    2.332978    0.598924
     65          1           0       -6.557990    4.409652    0.258285
     66          1           0       -5.442874    4.473947   -1.085385
     67          1           0       -5.347013    0.095530   -0.886291
     68          1           0       -5.953727   -3.432580   -2.031726
     69          1           0       -6.379838   -2.550683   -0.584745
     70          1           0       -6.143517   -1.696616   -2.090663
     71          1           0       -0.897122    0.389467   -3.149935
     72          1           0       -1.372329    1.242562   -1.923556
     73          1           0       -4.996915   -5.502004   -0.958667
     74          1           0       -4.885786   -5.225119   -2.680309
     75          1           0       -2.656723   -5.110818   -0.839552
     76          1           0       -0.849985   -4.276739   -0.852753
     77          1           0        2.317510   -5.220073   -0.730591
     78          1           0        2.035122   -5.087277    0.988621
     79          1           0        0.689484   -5.312870   -0.102907
     80          1           0        3.446003    0.137299    0.183753
     81          1           0        3.962406   -3.490703    1.136851
     82          1           0        4.222757   -1.769406    1.159327
     83          1           0        4.660182   -3.656450   -1.119493
     84          1           0        4.634000   -1.931215   -1.324106
     85          1           0        7.204886   -3.917874    0.836796
     86          1           0       -2.262267    1.488441    2.292450
     87          1           0       -0.371839   -2.213461    2.197564
     88          1           0       -0.663531   -2.972859    4.687710
     89          1           0       -1.040319   -1.697718    5.821338
     90          1           0       -2.325508   -2.652647    5.121719
 ---------------------------------------------------------------------

 SCF Done:  E(UPBE1PBE) =  -3438.28575052     A.U. after   49 cycles

 Alpha virt. eigenvalues --    0.60399   0.60672   0.61099   0.61259   0.61361
 Alpha virt. eigenvalues --    0.61597   0.61780   0.62240   0.62703   0.62988
 Alpha virt. eigenvalues --    0.63102   0.63315   0.63623   0.64303   0.64401

  Beta  occ. eigenvalues -- -256.53949 -30.28173 -26.11581 -26.11375 -26.10582
  Beta  occ. eigenvalues --  -19.32767 -19.32153 -19.31530 -19.23605 -19.23296
  Beta  occ. eigenvalues --  -14.56241 -14.50648 -14.49868 -14.49623 -14.48965
  Beta  occ. eigenvalues --  -14.48339 -10.41057 -10.40658 -10.39339 -10.36978
  Beta  occ. eigenvalues --  -10.35962 -10.35940 -10.35789 -10.35591 -10.35123
  Beta  occ. eigenvalues --  -10.35107 -10.35045 -10.34777 -10.34367 -10.34188
  Beta  occ. eigenvalues --  -10.33283 -10.33174 -10.33123 -10.33090 -10.33041
  Beta  occ. eigenvalues --  -10.32836 -10.32663 -10.32653 -10.32546 -10.32429
  Beta  occ. eigenvalues --  -10.32397 -10.32382 -10.32106 -10.31775 -10.31467
  Beta  occ. eigenvalues --  -10.31239 -10.31214 -10.31083 -10.30937 -10.30695
  Beta  occ. eigenvalues --  -10.30585 -10.30452 -10.30415 -10.29965  -3.58551
  Beta  occ. eigenvalues --   -2.34609  -2.34178  -2.30853  -1.23987  -1.23987
  Beta  occ. eigenvalues --   -1.20423  -1.16731  -1.12551  -1.11700  -1.11219
  Beta  occ. eigenvalues --   -1.10608  -1.09899  -1.08686  -1.04814  -0.95727
  Beta  occ. eigenvalues --   -0.95136  -0.93535  -0.93274  -0.93089  -0.92802
  Beta  occ. eigenvalues --   -0.92286  -0.91901  -0.89427  -0.88237  -0.87696
  Beta  occ. eigenvalues --   -0.86410  -0.86294  -0.84422  -0.83270  -0.82817
  Beta  occ. eigenvalues --   -0.82446  -0.81988  -0.80724  -0.78314  -0.77939
  Beta  occ. eigenvalues --   -0.77813  -0.77090  -0.76803  -0.74576  -0.74055
  Beta  occ. eigenvalues --   -0.73597  -0.72418  -0.71527  -0.70179  -0.69838
  Beta  occ. eigenvalues --   -0.69124  -0.68431  -0.67491  -0.66470  -0.65533
  Beta  occ. eigenvalues --   -0.64288  -0.63854  -0.63167  -0.63047  -0.61042
  Beta  occ. eigenvalues --   -0.60829  -0.60307  -0.59867  -0.59510  -0.59297
  Beta  occ. eigenvalues --   -0.58751  -0.58034  -0.57395  -0.57249  -0.56995
  Beta  occ. eigenvalues --   -0.56801  -0.56153  -0.55853  -0.55750  -0.55466
  Beta  occ. eigenvalues --   -0.55083  -0.54583  -0.54162  -0.54039  -0.53609
  Beta  occ. eigenvalues --   -0.53553  -0.53394  -0.53261  -0.53161  -0.52725
  Beta  occ. eigenvalues --   -0.52569  -0.52468  -0.52301  -0.51902  -0.51605
  Beta  occ. eigenvalues --   -0.51520  -0.51495  -0.51063  -0.50585  -0.50504
  Beta  occ. eigenvalues --   -0.50225  -0.50017  -0.49893  -0.49068  -0.48914
  Beta  occ. eigenvalues --   -0.48664  -0.48433  -0.47932  -0.47731  -0.47411
  Beta  occ. eigenvalues --   -0.47108  -0.46637  -0.46545  -0.46349  -0.45970
  Beta  occ. eigenvalues --   -0.45512  -0.45295  -0.44851  -0.44517  -0.44008
  Beta  occ. eigenvalues --   -0.43657  -0.43142  -0.42914  -0.42320  -0.41598
  Beta  occ. eigenvalues --   -0.39762  -0.39557  -0.39476  -0.38864  -0.38786
  Beta  occ. eigenvalues --   -0.37648  -0.36691  -0.35486  -0.34930  -0.34688
  Beta  occ. eigenvalues --   -0.33920  -0.33281  -0.33196  -0.31171  -0.30093
  Beta virt. eigenvalues --   -0.20984  -0.20069  -0.18358  -0.17356  -0.16464
  Beta virt. eigenvalues --   -0.15005  -0.14308  -0.13242  -0.12338  -0.10665
  Beta virt. eigenvalues --   -0.09023  -0.07448  -0.07162  -0.06406  -0.05845

 Mulliken charges and spin densities:
               1          2
     1  C   -0.359647   0.001165
     2  C    0.140592   0.007692
     3  N   -0.183980   0.002951
     4  C   -0.187752  -0.000256
     5  C    0.033525   0.013947
     6  N   -0.006148   0.057858
     7  H    0.241793   0.001171
     8  Fe  -0.075198   3.051477
     9  C   -0.481392  -0.079713
    10  C   -0.441484  -0.032300
    11  C   -0.465752   0.111110
    12  C   -0.469231   0.028923
    13  N    0.015963  -0.102349
    14  C    0.313035   0.052040
    15  C    0.072065   0.001022
    16  C   -0.094756   0.035474
    17  C    0.242664   0.021682
    18  C   -0.385922  -0.003084
    19  C   -0.418596  -0.002194
    20  C   -0.120554   0.000616
    21  C    0.227838   0.000085
    22  O   -0.328638  -0.000010
    23  O   -0.331686   0.000064
    24  N   -0.263252  -0.044912
    25  C    0.295566   0.028949
    26  C   -0.108265  -0.042397
    27  C   -0.030131   0.050594
    28  C    0.168760  -0.046411
    29  C   -0.357462   0.002434
    30  C   -0.130530  -0.116754
    31  C   -0.200063   0.137646
    32  N   -0.017397  -0.009210
    33  C    0.335072  -0.082174
    34  C   -0.131252   0.298044
    35  C   -0.067277  -0.154356
    36  C    0.288009   0.034246
    37  C   -0.360426  -0.014739
    38  C   -0.003704   0.700424
    39  C   -0.308110   0.990528
    40  N   -0.100915  -0.067454
    41  C    0.290155  -0.006602
    42  C   -0.104315   0.045180
    43  C    0.032162  -0.011766
    44  C    0.286928   0.060337
    45  C   -0.369926  -0.003274
    46  C   -0.319033  -0.000938
    47  C   -0.214106   0.000211
    48  C    0.240952   0.000044
    49  O   -0.285802   0.000092
    50  O   -0.345113  -0.000006
    51  O   -0.512426   0.024515
    52  H    0.362601   0.000004
    53  H    0.139508   0.000024
    54  H    0.121647  -0.000016
    55  H    0.137340  -0.000110
    56  H    0.137630   0.000004
    57  H    0.153593   0.001976
    58  H    0.146767   0.001151
    59  H    0.144156  -0.000156
    60  H    0.138684   0.000905
    61  H    0.171570  -0.001171
    62  H    0.157788  -0.001254
    63  H    0.126654   0.000236
    64  H    0.127604   0.004048
    65  H    0.135952  -0.006796
    66  H    0.103370  -0.003478
    67  H    0.160930  -0.005098
    68  H    0.137560   0.001904
    69  H    0.158822   0.012070
    70  H    0.147154   0.009203
    71  H    0.344423   0.006306
    72  H    0.321286   0.000997
    73  H    0.150349   0.027832
    74  H    0.140815  -0.004085
    75  H    0.106969   0.005914
    76  H    0.118024   0.000252
    77  H    0.154670   0.001829
    78  H    0.146454   0.001581
    79  H    0.126964  -0.000030
    80  H    0.151344   0.003185
    81  H    0.114844  -0.000391
    82  H    0.139624  -0.000162
    83  H    0.126550   0.000048
    84  H    0.145385   0.000016
    85  H    0.362534  -0.000004
    86  H    0.182753   0.001128
    87  H    0.156849   0.002017
    88  H    0.151736   0.000043
    89  H    0.151646   0.000204
    90  H    0.152616   0.000254
 Sum of Mulliken charges =   1.00000   5.00000

 Dipole moment (field-independent basis, Debye):
    X=             -8.1775    Y=              0.7469    Z=              7.4419  Tot=             11.0820
 Quadrupole moment (field-independent basis, Debye-Ang):
   XX=           -254.5888   YY=           -202.4299   ZZ=           -257.1039
   XY=             -0.1689   XZ=              3.1653   YZ=             -8.6282

 Summary of Natural Population Analysis:

                                       Natural Population
                Natural  -----------------------------------------------
    Atom  No    Charge         Core      Valence    Rydberg      Total
 -----------------------------------------------------------------------
      C    1   -0.31684      0.99969     2.31426    0.00289     3.31684
      C    2    0.06554      0.99956     1.92564    0.00926     2.93446
      N    3   -0.22251      0.99963     2.71249    0.01038     3.72251
      C    4   -0.02925      0.99948     2.01933    0.01044     3.02925
      C    5    0.10129      0.99966     1.88790    0.01115     2.89871
      N    6   -0.15925      0.99966     2.63932    0.02027     3.65925
      H    7    0.21200      0.00000     0.28728    0.00072     0.28800
     Fe    8    1.76481      8.99608     2.21580    0.02331    11.23519
      C    9   -0.11630      0.99956     2.10853    0.00822     3.11630
      C   10   -0.10925      0.99955     2.10184    0.00785     3.10925
      C   11   -0.05401      0.99955     2.04676    0.00769     3.05401
      C   12   -0.08548      0.99953     2.07801    0.00794     3.08548
      N   13   -0.23040      0.99964     2.70739    0.02337     3.73040
      C   14    0.09186      0.99946     1.89807    0.01062     2.90814
      C   15    0.00407      0.99943     1.98715    0.00935     2.99593
      C   16    0.01941      0.99942     1.97303    0.00814     2.98059
      C   17    0.07349      0.99945     1.91638    0.01069     2.92651
      C   18   -0.32082      0.99970     2.31768    0.00345     3.32082
      C   19   -0.21275      0.99966     2.20642    0.00667     3.21275
      C   20   -0.24307      0.99962     2.23503    0.00841     3.24307
      C   21    0.37864      0.99978     1.60224    0.01934     2.62136
      O   22   -0.33259      0.99979     3.31851    0.01430     4.33259
      O   23   -0.28836      0.99989     3.27564    0.01283     4.28836
      N   24   -0.24259      0.99965     2.72008    0.02286     3.74259
      C   25    0.06467      0.99949     1.92477    0.01107     2.93533
      C   26   -0.01155      0.99944     2.00353    0.00858     3.01155
      C   27   -0.02195      0.99942     2.01182    0.01072     3.02195
      C   28    0.05662      0.99951     1.93250    0.01138     2.94338
      C   29   -0.31978      0.99969     2.31617    0.00392     3.31978
      C   30   -0.17211      0.99933     2.16076    0.01202     3.17211
      C   31   -0.08472      0.99938     2.07571    0.00963     3.08472
      N   32   -0.19313      0.99965     2.67010    0.02338     3.69313
      C   33    0.03502      0.99949     1.95503    0.01046     2.96498
      C   34    0.14361      0.99943     1.84905    0.00792     2.85639
      C   35   -0.09819      0.99942     2.08954    0.00923     3.09819
      C   36    0.10794      0.99950     1.88186    0.01071     2.89206
      C   37   -0.32245      0.99970     2.31942    0.00333     3.32245
      C   38    0.24979      0.99927     1.74189    0.00905     2.75021
      C   39    0.33791      0.99907     1.65867    0.00435     2.66209
      N   40   -0.22358      0.99965     2.70067    0.02326     3.72358
      C   41    0.06591      0.99945     1.92344    0.01120     2.93409
      C   42    0.01985      0.99943     1.97262    0.00810     2.98015
      C   43   -0.00337      0.99944     1.99473    0.00920     3.00337
      C   44    0.09198      0.99947     1.89779    0.01076     2.90802
      C   45   -0.31960      0.99970     2.31625    0.00366     3.31960
      C   46   -0.21401      0.99967     2.20745    0.00688     3.21401
      C   47   -0.25000      0.99963     2.24183    0.00854     3.25000
      C   48    0.37901      0.99976     1.60187    0.01937     2.62099
      O   49   -0.26851      0.99988     3.25559    0.01304     4.26851
      O   50   -0.34260      0.99978     3.32772    0.01510     4.34260
      O   51   -0.39816      0.99993     3.39016    0.00807     4.39816
      H   52    0.26159      0.00000     0.23715    0.00126     0.23841
      H   53    0.11794      0.00000     0.38139    0.00067     0.38206
      H   54    0.11328      0.00000     0.38600    0.00072     0.38672
      H   55    0.11430      0.00000     0.38490    0.00080     0.38570
      H   56    0.10884      0.00000     0.39002    0.00113     0.39116
      H   57    0.11647      0.00000     0.38282    0.00071     0.38353
      H   58    0.11354      0.00000     0.38577    0.00069     0.38646
      H   59    0.11539      0.00000     0.38392    0.00069     0.38461
      H   60    0.11097      0.00000     0.38774    0.00129     0.38903
      H   61    0.11519      0.00000     0.38405    0.00076     0.38481
      H   62    0.11789      0.00000     0.38137    0.00075     0.38211
      H   63    0.11272      0.00000     0.38664    0.00065     0.38728
      H   64    0.10979      0.00000     0.38908    0.00114     0.39021
      H   65    0.09781      0.00000     0.40119    0.00101     0.40219
      H   66    0.08737      0.00000     0.41138    0.00125     0.41263
      H   67    0.11358      0.00000     0.38521    0.00121     0.38642
      H   68    0.11526      0.00000     0.38403    0.00071     0.38474
      H   69    0.12106      0.00000     0.37832    0.00062     0.37894
      H   70    0.11907      0.00000     0.38034    0.00059     0.38093
      H   71    0.25394      0.00000     0.24469    0.00137     0.24606
      H   72    0.25024      0.00000     0.24821    0.00156     0.24976
      H   73    0.10276      0.00000     0.39644    0.00081     0.39724
      H   74    0.08504      0.00000     0.41386    0.00111     0.41496
      H   75    0.10545      0.00000     0.39347    0.00108     0.39455
      H   76    0.11041      0.00000     0.38814    0.00145     0.38959
      H   77    0.11755      0.00000     0.38169    0.00076     0.38245
      H   78    0.11581      0.00000     0.38343    0.00077     0.38419
      H   79    0.11095      0.00000     0.38845    0.00060     0.38905
      H   80    0.11180      0.00000     0.38703    0.00117     0.38820
      H   81    0.11254      0.00000     0.38665    0.00081     0.38746
      H   82    0.10972      0.00000     0.38930    0.00098     0.39028
      H   83    0.11471      0.00000     0.38463    0.00066     0.38529
      H   84    0.11877      0.00000     0.38054    0.00068     0.38123
      H   85    0.26152      0.00000     0.23731    0.00117     0.23848
      H   86    0.11557      0.00000     0.38367    0.00076     0.38443
      H   87    0.11573      0.00000     0.38352    0.00075     0.38427
      H   88    0.11959      0.00000     0.37998    0.00043     0.38041
      H   89    0.11505      0.00000     0.38434    0.00061     0.38495
      H   90    0.11456      0.00000     0.38483    0.00062     0.38544
 =======================================================================
   * Total *    3.00000     57.97498   126.43720    0.58782   185.00000

 Normal termination of Gaussian 16 at Fri Sep  9 03:12:10 2022.
