 Gaussian 16, Revision A.03,
 Gaussian 16:  ES64L-G16RevA.03 25-Dec-2016

 ----------------------------------------------------------------------
 # PBE1PBE/def2TZVP empiricaldispersion=GD3BJ int=(grid=ultrafine) geom
 =check pop=nbo
 ----------------------------------------------------------------------

 ---------
 1cyi_II_Q
 ---------
 Structure from the checkpoint file:  "1cyi_II_Q.chk"
 Charge =  0 Multiplicity = 5

                         Standard orientation:
 ---------------------------------------------------------------------
 Center     Atomic      Atomic             Coordinates (Angstroms)
 Number     Number       Type             X           Y           Z
 ---------------------------------------------------------------------
      1          6           0        2.941753   -2.017817    4.609241
      2          6           0        1.884142   -1.316219    3.762055
      3          7           0        0.636412   -0.900877    4.108486
      4          6           0        2.067689   -1.128262    2.426675
      5          6           0        0.067600   -0.498718    2.963366
      6          7           0        0.878710   -0.570339    1.950658
      7          6           0       -0.664884    2.911386   -2.722830
      8          6           0        0.386119    1.884299   -3.098036
      9         16           0        0.333944    0.313387   -2.320729
     10          6           0        1.379786   -0.633353   -3.573512
     11         26           0        0.703926   -0.048035   -0.091780
     12          6           0       -2.671478   -0.294585   -0.040042
     13          6           0        1.023665   -3.442275   -0.829414
     14          6           0        4.107684    0.282866   -0.452566
     15          6           0        0.600945    3.190967    1.063833
     16          7           0       -0.580202   -1.533922   -0.291471
     17          6           0       -1.932311   -1.493578   -0.186456
     18          6           0       -2.462843   -2.758176   -0.413169
     19          6           0       -1.457128   -3.615151   -0.747915
     20          6           0       -0.291634   -2.871440   -0.649131
     21          6           0       -1.461695   -5.065156   -1.186274
     22          6           0       -3.947515   -3.054342   -0.279608
     23          6           0       -4.330988   -3.115006    1.187378
     24          6           0       -5.827165   -3.212755    1.388850
     25          8           0       -6.585992   -2.925611    0.455847
     26          8           0       -6.261313   -3.553635    2.493432
     27          7           0        2.258112   -1.274995   -0.634441
     28          6           0        2.210565   -2.645571   -0.838794
     29          6           0        3.503230   -3.153351   -1.067901
     30          6           0        4.417426   -2.121373   -1.023998
     31          6           0        3.595542   -0.967732   -0.782210
     32          6           0        3.715309   -4.679697   -1.219337
     33          6           0        5.836710   -2.140147   -1.163470
     34          6           0        6.413780   -2.250440   -2.419199
     35          7           0        2.047379    1.490460    0.195295
     36          6           0        3.430275    1.430181    0.035720
     37          6           0        4.138017    2.635859    0.527466
     38          6           0        3.088230    3.414536    0.915513
     39          6           0        1.850826    2.712343    0.733234
     40          6           0        5.640438    2.835685    0.894712
     41          6           0        3.234961    4.652823    1.548784
     42          6           0        3.775723    5.839114    0.845934
     43          7           0       -0.686896    1.186443    0.343650
     44          6           0       -0.587988    2.517034    0.803619
     45          6           0       -1.903459    3.149209    0.758678
     46          6           0       -2.740363    2.155125    0.335414
     47          6           0       -2.053832    0.966135    0.138617
     48          6           0       -2.166121    4.607620    1.063835
     49          6           0       -4.199202    2.166281    0.121882
     50          6           0       -4.465445    2.773033   -1.232802
     51          6           0       -5.908176    3.117865   -1.389408
     52          8           0       -6.718485    2.170506   -1.421098
     53          8           0       -6.238600    4.321632   -1.429918
     54          1           0        3.638418   -2.516954    3.968601
     55          1           0        3.459301   -1.294737    5.204388
     56          1           0        2.469142   -2.733723    5.248785
     57          1           0        2.943638   -1.360381    1.857698
     58          1           0       -0.943528   -0.156243    2.891037
     59          1           0       -0.842546    3.560230   -3.554899
     60          1           0       -1.573785    2.411856   -2.459640
     61          1           0       -0.319797    3.486674   -1.889249
     62          1           0        1.313935    2.314627   -2.783591
     63          1           0        0.213990    1.682631   -4.134666
     64          1           0        2.081122   -1.432522   -3.453692
     65          1           0        2.154325   -0.115581   -3.047297
     66          1           0        0.713451   -1.413366   -3.269413
     67          1           0       -3.740041   -0.343821   -0.065520
     68          1           0        1.112441   -4.500468   -0.960743
     69          1           0        5.163262    0.395878   -0.586293
     70          1           0        0.541495    4.141422    1.551685
     71          1           0       -0.604248   -5.255742   -1.797307
     72          1           0       -1.433268   -5.698450   -0.324282
     73          1           0       -2.350795   -5.265489   -1.746870
     74          1           0       -4.102498   -4.034964   -0.678682
     75          1           0       -4.466772   -2.217933   -0.698765
     76          1           0       -4.034163   -2.178575    1.611515
     77          1           0       -3.919618   -4.027741    1.564989
     78          1           0        4.551901   -4.861607   -1.861149
     79          1           0        3.902779   -5.110839   -0.258154
     80          1           0        2.837799   -5.121382   -1.643352
     81          1           0        5.770301   -1.803483   -3.147940
     82          1           0        7.359019   -1.749030   -2.422628
     83          1           0        5.928315    3.844212    0.682817
     84          1           0        5.782723    2.635472    1.936139
     85          1           0        2.969082    6.476870    0.550134
     86          1           0        4.431292    6.373771    1.501123
     87          1           0       -3.086161    4.699244    1.602381
     88          1           0       -2.232552    5.157252    0.148198
     89          1           0       -1.365409    4.997780    1.656740
     90          1           0       -4.618953    2.827515    0.850908
     91          1           0       -4.518693    1.146032    0.078080
     92          1           0       -4.256287    2.009932   -1.953101
     93          1           0       -3.927925    3.697770   -1.261666
     94          1           0       -7.059639   -4.083502    2.552732
     95          1           0       -7.206449    1.982976   -2.226283
     96          1           0        6.557402   -3.283932   -2.656197
     97          1           0        0.230130   -0.896444    5.022223
     98          1           0        4.317458    5.523712   -0.021214
     99          1           0        6.241106    2.164475    0.317153
    100          1           0        2.947017    4.746304    2.575064
    101          1           0        6.458496   -2.068833   -0.295601
 ---------------------------------------------------------------------

 SCF Done:  E(UPBE1PBE) =  -3880.30573560     A.U. after   77 cycles

 Alpha virt. eigenvalues --    1.03779   1.04191   1.04522   1.04852   1.05037
 Alpha virt. eigenvalues --    1.05362   1.05765   1.06292   1.06366   1.06590
 Alpha virt. eigenvalues --    1.06736   1.06974   1.07224   1.07492   1.07805

  Beta  occ. eigenvalues -- -256.32832 -89.02535 -30.07482 -25.92426 -25.90225
  Beta  occ. eigenvalues --  -25.88551 -19.26597 -19.25036 -19.17382 -19.17328
  Beta  occ. eigenvalues --  -14.44872 -14.38288 -14.37652 -14.37623 -14.36957
  Beta  occ. eigenvalues --  -14.36430 -10.34739 -10.34100 -10.27523 -10.25915
  Beta  occ. eigenvalues --  -10.25265 -10.25232 -10.24606 -10.24556 -10.24551
  Beta  occ. eigenvalues --  -10.24436 -10.24039 -10.23769 -10.22989 -10.22938
  Beta  occ. eigenvalues --  -10.22909 -10.22870 -10.22865 -10.22786 -10.22445
  Beta  occ. eigenvalues --  -10.22404 -10.22062 -10.22011 -10.21919 -10.21896
  Beta  occ. eigenvalues --  -10.21804 -10.21710 -10.21687 -10.21653 -10.21371
  Beta  occ. eigenvalues --  -10.21370 -10.21233 -10.21206 -10.21156 -10.21098
  Beta  occ. eigenvalues --  -10.20962 -10.20707 -10.20654 -10.20621 -10.20182
  Beta  occ. eigenvalues --  -10.19617 -10.17857  -8.00187  -5.94019  -5.93536
  Beta  occ. eigenvalues --   -5.92834  -3.39564  -2.18076  -2.13689  -2.12049
  Beta  occ. eigenvalues --   -1.18127  -1.16265  -1.06128  -1.02939  -1.02022
  Beta  occ. eigenvalues --   -0.97837  -0.96950  -0.96901  -0.95886  -0.90865
  Beta  occ. eigenvalues --   -0.85000  -0.84070  -0.83727  -0.83072  -0.82808
  Beta  occ. eigenvalues --   -0.82427  -0.80980  -0.80731  -0.80696  -0.79261
  Beta  occ. eigenvalues --   -0.78477  -0.77849  -0.77205  -0.76389  -0.75034
  Beta  occ. eigenvalues --   -0.74447  -0.73279  -0.72395  -0.71986  -0.71914
  Beta  occ. eigenvalues --   -0.70524  -0.69480  -0.69116  -0.68125  -0.66179
  Beta  occ. eigenvalues --   -0.66007  -0.64896  -0.64671  -0.64072  -0.62390
  Beta  occ. eigenvalues --   -0.62215  -0.61820  -0.58830  -0.58682  -0.57770
  Beta  occ. eigenvalues --   -0.56431  -0.56058  -0.54731  -0.54371  -0.53101
  Beta  occ. eigenvalues --   -0.52904  -0.51950  -0.51886  -0.51722  -0.51398
  Beta  occ. eigenvalues --   -0.50917  -0.50469  -0.50183  -0.49992  -0.49164
  Beta  occ. eigenvalues --   -0.48925  -0.48619  -0.48122  -0.47935  -0.47618
  Beta  occ. eigenvalues --   -0.47200  -0.46784  -0.46265  -0.45912  -0.45385
  Beta  occ. eigenvalues --   -0.45032  -0.44897  -0.44823  -0.44539  -0.44323
  Beta  occ. eigenvalues --   -0.44000  -0.43818  -0.43461  -0.43387  -0.43111
  Beta  occ. eigenvalues --   -0.42965  -0.42792  -0.42436  -0.42300  -0.42076
  Beta  occ. eigenvalues --   -0.42038  -0.41706  -0.41469  -0.41023  -0.40841
  Beta  occ. eigenvalues --   -0.40784  -0.40330  -0.40074  -0.39835  -0.39512
  Beta  occ. eigenvalues --   -0.39238  -0.39116  -0.38951  -0.38680  -0.38353
  Beta  occ. eigenvalues --   -0.37963  -0.37943  -0.37657  -0.37522  -0.37278
  Beta  occ. eigenvalues --   -0.36933  -0.36822  -0.36640  -0.36490  -0.35795
  Beta  occ. eigenvalues --   -0.35734  -0.34676  -0.34167  -0.34050  -0.33239
  Beta  occ. eigenvalues --   -0.32837  -0.32732  -0.32408  -0.32270  -0.31999
  Beta  occ. eigenvalues --   -0.31835  -0.31443  -0.30049  -0.28093  -0.27895
  Beta  occ. eigenvalues --   -0.27614  -0.26992  -0.26287  -0.25235  -0.24208
  Beta  occ. eigenvalues --   -0.23952  -0.23622  -0.22436  -0.19531  -0.19343
  Beta  occ. eigenvalues --   -0.18460  -0.17321  -0.15738
  Beta virt. eigenvalues --   -0.07433  -0.07048  -0.04186  -0.03929  -0.03121
  Beta virt. eigenvalues --   -0.01640  -0.01188  -0.00430   0.00583   0.02079
  Beta virt. eigenvalues --    0.02542   0.03165   0.03339   0.03604   0.03818

 Mulliken charges and spin densities:
               1          2
     1  C   -0.379751   0.000424
     2  C    0.145588   0.003365
     3  N   -0.226346  -0.000589
     4  C   -0.195585  -0.002582
     5  C    0.016938  -0.009610
     6  N   -0.010026   0.034334
     7  C   -0.357149   0.001130
     8  C   -0.150979   0.009444
     9  S    0.052435   0.022042
    10  C   -0.651880   0.015053
    11  Fe  -0.363346   2.190348
    12  C   -0.442314  -0.004031
    13  C   -0.515428  -0.018917
    14  C   -0.477653   0.033059
    15  C   -0.536745  -0.005576
    16  N    0.042015   0.018477
    17  C    0.200890  -0.022741
    18  C    0.031122   0.006580
    19  C   -0.059340  -0.015750
    20  C    0.197933  -0.000282
    21  C   -0.419164   0.001643
    22  C   -0.248360   0.000685
    23  C   -0.176543   0.000177
    24  C    0.237832   0.000075
    25  O   -0.368586  -0.000055
    26  O   -0.321379   0.000003
    27  N   -0.013725  -0.013850
    28  C    0.238780  -0.010608
    29  C   -0.065242   0.030251
    30  C    0.080142  -0.104268
    31  C    0.051248   0.000432
    32  C   -0.382924   0.001649
    33  C   -0.286727   1.002582
    34  C   -0.314194  -0.067481
    35  N   -0.033575   0.026069
    36  C    0.384020  -0.046553
    37  C   -0.210570   0.145801
    38  C    0.131414  -0.159007
    39  C    0.173261   0.016202
    40  C   -0.343308  -0.009689
    41  C   -0.285843   0.977070
    42  C   -0.316125  -0.064560
    43  N    0.080382  -0.037640
    44  C    0.263651  -0.012047
    45  C   -0.088902  -0.020771
    46  C    0.133400   0.003557
    47  C    0.075004  -0.020588
    48  C   -0.387608   0.001316
    49  C   -0.295737   0.000517
    50  C   -0.113103  -0.000388
    51  C    0.255318  -0.000002
    52  O   -0.347211   0.000001
    53  O   -0.351357   0.000003
    54  H    0.146310   0.000064
    55  H    0.139095   0.000112
    56  H    0.123898   0.000114
    57  H    0.151092   0.001450
    58  H    0.148505   0.001636
    59  H    0.133958   0.000588
    60  H    0.108441   0.000066
    61  H    0.123477  -0.000143
    62  H    0.114040  -0.000224
    63  H    0.141463   0.000967
    64  H    0.225662  -0.005211
    65  H    0.221330   0.001965
    66  H    0.226132  -0.002861
    67  H    0.120673   0.000513
    68  H    0.124617   0.001216
    69  H    0.117635   0.000420
    70  H    0.107143   0.005877
    71  H    0.127817  -0.000536
    72  H    0.139508  -0.000604
    73  H    0.140252  -0.000199
    74  H    0.099153   0.000181
    75  H    0.123828  -0.000261
    76  H    0.130938   0.000113
    77  H    0.120940  -0.000084
    78  H    0.128995  -0.001051
    79  H    0.138839   0.000338
    80  H    0.123761  -0.000477
    81  H    0.132858   0.020174
    82  H    0.119793   0.017870
    83  H    0.135375   0.001120
    84  H    0.137545   0.007001
    85  H    0.132626   0.050469
    86  H    0.120749   0.018688
    87  H    0.135807  -0.000257
    88  H    0.147239  -0.001185
    89  H    0.128789  -0.000082
    90  H    0.109553  -0.000097
    91  H    0.104732   0.000035
    92  H    0.107278   0.000106
    93  H    0.113383   0.000045
    94  H    0.349125  -0.000010
    95  H    0.356016   0.000003
    96  H    0.124109   0.079132
    97  H    0.235160   0.002538
    98  H    0.130277   0.006021
    99  H    0.128062  -0.000151
   100  H    0.121295  -0.049559
   101  H    0.128077  -0.050533
 Sum of Mulliken charges =  -0.00000   4.00000

 Dipole moment (field-independent basis, Debye):
    X=              3.1425    Y=             -4.7309    Z=              7.2762  Tot=              9.2303
 Quadrupole moment (field-independent basis, Debye-Ang):
   XX=           -319.1905   YY=           -313.8587   ZZ=           -306.8201
   XY=             26.1513   XZ=             -1.8707   YZ=             -6.5543

 Summary of Natural Population Analysis:

                                       Natural Population
                Natural  -----------------------------------------------
    Atom  No    Charge         Core      Valence    Rydberg      Total
 -----------------------------------------------------------------------
      C    1   -0.31543      0.99969     2.31280    0.00293     3.31543
      C    2    0.05317      0.99951     1.93787    0.00944     2.94683
      N    3   -0.24898      0.99967     2.73892    0.01039     3.74898
      C    4   -0.04526      0.99945     2.03596    0.00985     3.04526
      C    5    0.08765      0.99966     1.90101    0.01168     2.91235
      N    6   -0.16233      0.99972     2.63239    0.03022     3.66233
      C    7   -0.30271      0.99972     2.29716    0.00583     3.30271
      C    8   -0.28927      0.99969     2.27711    0.01247     3.28927
      S    9    0.33843      4.99903     2.63381    0.02872     7.66157
      C   10   -0.66753      0.99956     2.63427    0.03369     3.66753
     Fe   11    1.09714      8.99450     2.88269    0.02567    11.90286
      C   12   -0.11508      0.99952     2.10761    0.00796     3.11508
      C   13   -0.12011      0.99955     2.11268    0.00788     3.12011
      C   14   -0.09999      0.99952     2.09273    0.00775     3.09999
      C   15   -0.12484      0.99948     2.11694    0.00842     3.12484
      N   16   -0.17629      0.99968     2.65627    0.02034     3.67629
      C   17    0.05324      0.99947     1.93604    0.01124     2.94676
      C   18   -0.01289      0.99940     2.00387    0.00961     3.01289
      C   19   -0.03166      0.99937     2.02333    0.00896     3.03166
      C   20    0.06846      0.99946     1.92150    0.01059     2.93154
      C   21   -0.31571      0.99970     2.31237    0.00363     3.31571
      C   22   -0.20608      0.99968     2.19872    0.00768     3.20608
      C   23   -0.25074      0.99963     2.24274    0.00837     3.25074
      C   24    0.38193      0.99977     1.59939    0.01891     2.61807
      O   25   -0.30765      0.99989     3.29516    0.01261     4.30765
      O   26   -0.32651      0.99979     3.31255    0.01417     4.32651
      N   27   -0.20597      0.99971     2.68334    0.02292     3.70597
      C   28    0.05492      0.99949     1.93466    0.01094     2.94508
      C   29    0.00834      0.99940     1.98356    0.00871     2.99166
      C   30   -0.09329      0.99947     2.08305    0.01077     3.09329
      C   31    0.07164      0.99948     1.91840    0.01048     2.92836
      C   32   -0.31594      0.99970     2.31265    0.00359     3.31594
      C   33    0.40780      0.99962     1.58439    0.00820     2.59220
      C   34   -0.35956      0.99967     2.35277    0.00712     3.35956
      N   35   -0.16874      0.99970     2.64836    0.02068     3.66874
      C   36    0.05059      0.99955     1.93969    0.01017     2.94941
      C   37    0.06541      0.99938     1.92654    0.00867     2.93459
      C   38   -0.12393      0.99945     2.11411    0.01037     3.12393
      C   39    0.09421      0.99951     1.89551    0.01077     2.90579
      C   40   -0.31850      0.99969     2.31526    0.00355     3.31850
      C   41    0.39643      0.99964     1.59641    0.00752     2.60357
      C   42   -0.35509      0.99972     2.34944    0.00593     3.35509
      N   43   -0.20263      0.99966     2.68234    0.02064     3.70263
      C   44    0.07454      0.99951     1.91537    0.01058     2.92546
      C   45   -0.02353      0.99944     2.01536    0.00872     3.02353
      C   46   -0.02300      0.99942     2.01387    0.00970     3.02300
      C   47    0.05564      0.99945     1.93439    0.01052     2.94436
      C   48   -0.31789      0.99969     2.31437    0.00383     3.31789
      C   49   -0.20724      0.99964     2.20062    0.00698     3.20724
      C   50   -0.24799      0.99963     2.23974    0.00863     3.24799
      C   51    0.38396      0.99974     1.59767    0.01864     2.61604
      O   52   -0.34350      0.99979     3.32888    0.01482     4.34350
      O   53   -0.29091      0.99989     3.27920    0.01182     4.29091
      H   54    0.11593      0.00000     0.38360    0.00046     0.38407
      H   55    0.10852      0.00000     0.39076    0.00072     0.39148
      H   56    0.10646      0.00000     0.39283    0.00071     0.39354
      H   57    0.11605      0.00000     0.38304    0.00091     0.38395
      H   58    0.10584      0.00000     0.39338    0.00078     0.39416
      H   59    0.10871      0.00000     0.39075    0.00054     0.39129
      H   60    0.10649      0.00000     0.39213    0.00138     0.39351
      H   61    0.10734      0.00000     0.39186    0.00080     0.39266
      H   62    0.10695      0.00000     0.39176    0.00129     0.39305
      H   63    0.12422      0.00000     0.37463    0.00115     0.37578
      H   64    0.18865      0.00000     0.31049    0.00087     0.31135
      H   65    0.19366      0.00000     0.30441    0.00193     0.30634
      H   66    0.19064      0.00000     0.30792    0.00144     0.30936
      H   67    0.10480      0.00000     0.39366    0.00154     0.39520
      H   68    0.10814      0.00000     0.39041    0.00145     0.39186
      H   69    0.10614      0.00000     0.39271    0.00116     0.39386
      H   70    0.11009      0.00000     0.38866    0.00125     0.38991
      H   71    0.10952      0.00000     0.38971    0.00076     0.39048
      H   72    0.10838      0.00000     0.39078    0.00083     0.39162
      H   73    0.11073      0.00000     0.38852    0.00075     0.38927
      H   74    0.10974      0.00000     0.38942    0.00084     0.39026
      H   75    0.11616      0.00000     0.38282    0.00103     0.38384
      H   76    0.12003      0.00000     0.37915    0.00082     0.37997
      H   77    0.11239      0.00000     0.38672    0.00089     0.38761
      H   78    0.10891      0.00000     0.39035    0.00074     0.39109
      H   79    0.10966      0.00000     0.38954    0.00081     0.39034
      H   80    0.10685      0.00000     0.39245    0.00070     0.39315
      H   81    0.12128      0.00000     0.37806    0.00066     0.37872
      H   82    0.11978      0.00000     0.37970    0.00052     0.38022
      H   83    0.11208      0.00000     0.38719    0.00073     0.38792
      H   84    0.11389      0.00000     0.38539    0.00073     0.38611
      H   85    0.13610      0.00000     0.36347    0.00043     0.36390
      H   86    0.11719      0.00000     0.38229    0.00052     0.38281
      H   87    0.11097      0.00000     0.38827    0.00077     0.38903
      H   88    0.11240      0.00000     0.38671    0.00089     0.38760
      H   89    0.10943      0.00000     0.38997    0.00060     0.39057
      H   90    0.10947      0.00000     0.38921    0.00133     0.39053
      H   91    0.10986      0.00000     0.38921    0.00093     0.39014
      H   92    0.11233      0.00000     0.38679    0.00089     0.38767
      H   93    0.11852      0.00000     0.38063    0.00085     0.38148
      H   94    0.25633      0.00000     0.24215    0.00152     0.24367
      H   95    0.25959      0.00000     0.23923    0.00118     0.24041
      H   96    0.14768      0.00000     0.35173    0.00059     0.35232
      H   97    0.20988      0.00000     0.28932    0.00079     0.29012
      H   98    0.11172      0.00000     0.38762    0.00066     0.38828
      H   99    0.10853      0.00000     0.39089    0.00058     0.39147
      H  100    0.07657      0.00000     0.42241    0.00102     0.42343
      H  101    0.07869      0.00000     0.42039    0.00092     0.42131
 =======================================================================
   * Total *    2.00000     64.97317   137.35889    0.66794   203.00000

 Normal termination of Gaussian 16 at Mon Jan 16 11:14:12 2023.
