 Gaussian 16, Revision A.03,
 Gaussian 16:  ES64L-G16RevA.03 25-Dec-2016

 ----------------------------------------------------------------------
 # PBE1PBE/def2TZVP scf=maxcycle=999 empiricaldispersion=GD3BJ int=(gri
 d=ultrafine) geom=check pop=nbo
 ----------------------------------------------------------------------

 ---------
 1drm_II_Q
 ---------
 Structure from the checkpoint file:  "1drm_II_Q.chk"
 Charge =  0 Multiplicity = 5

                         Standard orientation:
 ---------------------------------------------------------------------
 Center     Atomic      Atomic             Coordinates (Angstroms)
 Number     Number       Type             X           Y           Z
 ---------------------------------------------------------------------
      1          6           0       -1.125983   -1.908213    5.402037
      2          6           0       -1.269752   -1.122076    4.118040
      3          7           0       -1.819874    0.142104    4.037763
      4          6           0       -0.874797   -1.422264    2.852370
      5          6           0       -1.739039    0.573139    2.761111
      6          7           0       -1.175562   -0.331450    1.977358
      7         26           0       -0.931035   -0.046217   -0.116740
      8          6           0        2.492034    0.696816    0.075383
      9          6           0       -0.351158   -3.419378   -0.574439
     10          6           0       -4.124527   -0.640162   -1.139055
     11          6           0       -1.598265    3.393057    0.141444
     12          7           0        0.680677   -1.181420   -0.203990
     13          6           0        2.074120   -0.657094   -0.110764
     14          6           0        2.931790   -1.775513   -0.296105
     15          6           0        2.115560   -2.898610   -0.463148
     16          6           0        0.770973   -2.519589   -0.404455
     17          6           0        2.545178   -4.395272   -0.740746
     18          6           0        4.453702   -1.587943   -0.530953
     19          6           0        5.170883   -2.575879    0.091395
     20          6           0        6.542434   -2.608838   -0.435701
     21          8           0        7.407657   -2.515192    0.504849
     22          8           0        6.757819   -2.755088   -1.696621
     23          7           0       -2.025127   -1.592888   -0.626421
     24          6           0       -1.574354   -3.013864   -0.734992
     25          6           0       -2.643312   -3.899302   -0.935963
     26          6           0       -3.730789   -3.187039   -1.123588
     27          6           0       -3.389162   -1.714752   -0.936710
     28          6           0       -2.567728   -5.426915   -0.982053
     29          6           0       -5.053846   -3.882633   -1.401851
     30          6           0       -6.280339   -2.964675   -1.125465
     31          7           0       -2.460740    1.047362   -0.418464
     32          6           0       -3.696922    0.654115   -0.878076
     33          6           0       -4.548552    1.830321   -1.062745
     34          6           0       -3.852821    2.874045   -0.755077
     35          6           0       -2.590385    2.447916   -0.351448
     36          6           0       -6.066029    1.776879   -1.589619
     37          6           0       -4.077295    4.438701   -0.929225
     38          6           0       -5.528216    4.744877   -0.920005
     39          7           0        0.020639    1.606926    0.095710
     40          6           0       -0.380043    3.024684    0.238244
     41          6           0        0.783932    3.928505    0.481487
     42          6           0        1.868835    3.187644    0.550078
     43          6           0        1.494892    1.805878    0.256823
     44          6           0        0.749469    5.377693    0.683040
     45          6           0        3.413067    3.490932    0.888990
     46          6           0        4.244181    3.758784   -0.418572
     47          6           0        5.535184    3.547497   -1.109523
     48          8           0        5.381125    3.835691   -2.292042
     49          8           0        6.156326    2.557024   -0.744689
     50          1           0       -1.430114   -2.920612    5.236351
     51          1           0       -0.104117   -1.890075    5.718834
     52          1           0       -1.742004   -1.470135    6.159339
     53          1           0       -2.213791    0.654527    4.800818
     54          1           0       -2.087282    1.527424    2.425005
     55          1           0       -0.408373   -2.338185    2.554986
     56          1           0        7.422914   -3.166825    1.209648
     57          1           0        4.700282   -3.520579   -0.084604
     58          1           0        5.199637   -2.384304    1.143712
     59          1           0        4.653383   -1.617533   -1.581739
     60          1           0        4.754665   -0.637420   -0.142588
     61          1           0        5.782693    1.682033   -0.872711
     62          1           0        3.572109    3.364849   -1.152080
     63          1           0        4.177127    4.825523   -0.468300
     64          1           0        3.830252    2.650138    1.402724
     65          1           0        3.469866    4.351585    1.522195
     66          1           0       -0.247144    5.680058    0.928471
     67          1           0        1.409582    5.642407    1.482463
     68          1           0        1.060775    5.870120   -0.214460
     69          1           0        3.537261    0.925496    0.085754
     70          1           0        1.949958   -4.795811   -1.534585
     71          1           0        3.577769   -4.424042   -1.019723
     72          1           0        2.398448   -4.978464    0.144272
     73          1           0       -0.162578   -4.472605   -0.567367
     74          1           0       -1.887247    4.385113    0.419320
     75          1           0       -5.112131   -0.773686   -1.528554
     76          1           0       -6.499603    0.832886   -1.333120
     77          1           0       -6.629747    2.563905   -1.133865
     78          1           0       -6.078984    1.898267   -2.652632
     79          1           0       -6.225778    4.042641   -1.326420
     80          1           0       -5.877578    5.668035   -0.506938
     81          1           0       -3.297184    5.163063   -1.037052
     82          1           0       -3.168134   -5.789507   -1.790100
     83          1           0       -1.551940   -5.729494   -1.128751
     84          1           0       -2.930257   -5.829951   -0.059538
     85          1           0       -7.264193   -3.292643   -1.388846
     86          1           0       -6.139517   -2.005750   -0.672110
     87          1           0       -5.133137   -4.891559   -1.749241
 ---------------------------------------------------------------------

 SCF Done:  E(UPBE1PBE) =  -3361.98134367     A.U. after   49 cycles

 Alpha virt. eigenvalues --    0.61022   0.61172   0.61715   0.61789   0.62091
 Alpha virt. eigenvalues --    0.62344   0.62494   0.63067   0.63213   0.63597
 Alpha virt. eigenvalues --    0.63804   0.64240   0.64469   0.64504   0.64697

  Beta  occ. eigenvalues -- -256.41631 -30.16356 -25.99645 -25.99529 -25.98739
  Beta  occ. eigenvalues --  -19.26338 -19.24211 -19.19531 -19.18257 -14.46850
  Beta  occ. eigenvalues --  -14.41460 -14.39907 -14.39165 -14.38719 -14.38226
  Beta  occ. eigenvalues --  -10.36207 -10.35133 -10.30583 -10.28535 -10.27559
  Beta  occ. eigenvalues --  -10.26479 -10.25918 -10.25876 -10.25557 -10.25266
  Beta  occ. eigenvalues --  -10.25128 -10.24999 -10.24745 -10.24604 -10.24431
  Beta  occ. eigenvalues --  -10.24256 -10.24200 -10.23929 -10.23634 -10.23519
  Beta  occ. eigenvalues --  -10.23480 -10.23214 -10.22745 -10.22488 -10.22254
  Beta  occ. eigenvalues --  -10.21940 -10.21881 -10.21861 -10.21839 -10.21663
  Beta  occ. eigenvalues --  -10.21541 -10.21536 -10.21496 -10.21413 -10.21235
  Beta  occ. eigenvalues --  -10.21194 -10.21152 -10.19715  -3.46813  -2.22798
  Beta  occ. eigenvalues --   -2.22643  -2.19162  -1.17592  -1.15875  -1.07295
  Beta  occ. eigenvalues --   -1.04171  -1.02318  -0.98035  -0.95846  -0.94733
  Beta  occ. eigenvalues --   -0.93626  -0.92406  -0.86587  -0.84356  -0.83512
  Beta  occ. eigenvalues --   -0.82915  -0.82361  -0.81880  -0.81320  -0.79926
  Beta  occ. eigenvalues --   -0.78834  -0.78368  -0.76214  -0.74939  -0.74723
  Beta  occ. eigenvalues --   -0.74550  -0.73786  -0.72491  -0.72070  -0.71533
  Beta  occ. eigenvalues --   -0.70322  -0.69806  -0.68726  -0.67198  -0.66432
  Beta  occ. eigenvalues --   -0.66300  -0.65506  -0.64085  -0.63774  -0.62566
  Beta  occ. eigenvalues --   -0.60963  -0.59331  -0.58369  -0.56948  -0.56595
  Beta  occ. eigenvalues --   -0.55570  -0.55171  -0.54464  -0.53766  -0.52729
  Beta  occ. eigenvalues --   -0.52524  -0.52417  -0.51294  -0.51011  -0.50490
  Beta  occ. eigenvalues --   -0.49769  -0.49396  -0.49273  -0.49081  -0.48738
  Beta  occ. eigenvalues --   -0.48412  -0.47935  -0.47368  -0.47090  -0.46338
  Beta  occ. eigenvalues --   -0.45727  -0.45497  -0.45141  -0.45094  -0.45013
  Beta  occ. eigenvalues --   -0.44952  -0.44774  -0.44317  -0.44044  -0.43649
  Beta  occ. eigenvalues --   -0.43572  -0.43510  -0.42869  -0.42626  -0.42446
  Beta  occ. eigenvalues --   -0.42139  -0.41825  -0.41173  -0.40877  -0.40786
  Beta  occ. eigenvalues --   -0.40275  -0.39967  -0.39707  -0.39460  -0.39122
  Beta  occ. eigenvalues --   -0.38893  -0.38489  -0.38265  -0.38144  -0.38019
  Beta  occ. eigenvalues --   -0.37427  -0.37081  -0.36903  -0.36480  -0.36348
  Beta  occ. eigenvalues --   -0.35543  -0.35209  -0.34503  -0.33918  -0.33691
  Beta  occ. eigenvalues --   -0.33623  -0.32984  -0.32532  -0.32419  -0.32110
  Beta  occ. eigenvalues --   -0.31602  -0.30911  -0.29953  -0.29225  -0.28796
  Beta  occ. eigenvalues --   -0.28404  -0.28119  -0.26685  -0.26504  -0.26064
  Beta  occ. eigenvalues --   -0.25029  -0.23602  -0.22960  -0.21955  -0.19959
  Beta  occ. eigenvalues --   -0.17538
  Beta virt. eigenvalues --   -0.10143  -0.08708  -0.05480  -0.05237  -0.05114
  Beta virt. eigenvalues --   -0.04805  -0.03565  -0.03073  -0.02545   0.00425
  Beta virt. eigenvalues --    0.00584   0.01438   0.01564   0.02034   0.02446

 Mulliken charges and spin densities:
               1          2
     1  C   -0.359580   0.001214
     2  C    0.146833   0.003114
     3  N   -0.217988   0.002927
     4  C   -0.208948   0.005052
     5  C    0.028835   0.007099
     6  N   -0.028010   0.056825
     7  Fe  -0.120644   2.937889
     8  C   -0.487566   0.180573
     9  C   -0.526931   0.018025
    10  C   -0.509301   0.103587
    11  C   -0.527243   0.018643
    12  N   -0.019413  -0.062329
    13  C    0.272653   0.042525
    14  C   -0.092688   0.081202
    15  C   -0.015256   0.072017
    16  C    0.159601   0.086384
    17  C   -0.404017  -0.007681
    18  C   -0.251478  -0.010142
    19  C   -0.193069   0.001050
    20  C    0.365171   0.000055
    21  O   -0.357315   0.000066
    22  O   -0.366585   0.000156
    23  N   -0.064899   0.057586
    24  C    0.315087   0.026314
    25  C   -0.072943  -0.027932
    26  C    0.063162   0.038236
    27  C    0.217340   0.014772
    28  C   -0.402193   0.002656
    29  C   -0.199730  -0.077470
    30  C   -0.327153   0.107309
    31  N   -0.011806  -0.089428
    32  C    0.281270   0.060876
    33  C   -0.097141   0.090628
    34  C   -0.004287   0.036981
    35  C    0.243413   0.123475
    36  C   -0.369856  -0.008749
    37  C   -0.206969  -0.147405
    38  C   -0.296493   0.186006
    39  N   -0.057925   0.047333
    40  C    0.306118   0.032671
    41  C   -0.025776  -0.008666
    42  C   -0.083975   0.028757
    43  C    0.231872  -0.013204
    44  C   -0.425070   0.000751
    45  C   -0.114407  -0.002670
    46  C   -0.437619   0.001777
    47  C    0.298353   0.000018
    48  O   -0.285749   0.000134
    49  O   -0.334975   0.000011
    50  H    0.153108  -0.000005
    51  H    0.151243   0.000013
    52  H    0.124550   0.000180
    53  H    0.236470   0.001505
    54  H    0.179846   0.000049
    55  H    0.147828  -0.000159
    56  H    0.354535  -0.000003
    57  H    0.105658  -0.000084
    58  H    0.098338   0.000179
    59  H    0.144265   0.004257
    60  H    0.061840   0.000411
    61  H    0.354898   0.000278
    62  H    0.194416  -0.000004
    63  H    0.126798   0.000091
    64  H    0.135313   0.001950
    65  H    0.124852   0.000356
    66  H    0.123355   0.000208
    67  H    0.132084  -0.000441
    68  H    0.157311  -0.000165
    69  H    0.037733  -0.010806
    70  H    0.142800   0.002277
    71  H    0.136436   0.000149
    72  H    0.129931   0.003569
    73  H    0.122264  -0.002654
    74  H    0.131870  -0.002826
    75  H    0.128599  -0.005839
    76  H    0.117853   0.000733
    77  H    0.113509   0.000827
    78  H    0.149221   0.004339
    79  H    0.137052  -0.008896
    80  H    0.129338  -0.009438
    81  H    0.155564   0.007213
    82  H    0.133428  -0.000692
    83  H    0.125232   0.000241
    84  H    0.152327  -0.000962
    85  H    0.133951  -0.004607
    86  H    0.154378  -0.003722
    87  H    0.137099   0.003460
 Sum of Mulliken charges =  -0.00000   4.00000

 Dipole moment (field-independent basis, Debye):
    X=             -4.2116    Y=             -2.8105    Z=             12.6918  Tot=             13.6645
 Quadrupole moment (field-independent basis, Debye-Ang):
   XX=           -317.3585   YY=           -267.6777   ZZ=           -276.3407
   XY=            -12.6177   XZ=             28.4645   YZ=              4.2642

 Summary of Natural Population Analysis:

                                       Natural Population
                Natural  -----------------------------------------------
    Atom  No    Charge         Core      Valence    Rydberg      Total
 -----------------------------------------------------------------------
      C    1   -0.31867      0.99969     2.31580    0.00319     3.31867
      C    2    0.05293      0.99953     1.93840    0.00914     2.94707
      N    3   -0.24346      0.99970     2.73389    0.00988     3.74346
      C    4   -0.03597      0.99944     2.02788    0.00866     3.03597
      C    5    0.10751      0.99969     1.88376    0.00905     2.89249
      N    6   -0.15619      0.99971     2.63810    0.01838     3.65619
     Fe    7    1.76398      8.99300     2.22725    0.01576    11.23602
      C    8   -0.07237      0.99954     2.06737    0.00546     3.07237
      C    9   -0.11268      0.99936     2.10472    0.00859     3.11268
      C   10   -0.10769      0.99937     2.09927    0.00905     3.10769
      C   11   -0.12263      0.99927     2.11440    0.00895     3.12263
      N   12   -0.23137      0.99968     2.71235    0.01934     3.73137
      C   13    0.09418      0.99947     1.89668    0.00966     2.90582
      C   14    0.01266      0.99941     1.97826    0.00967     2.98734
      C   15    0.01129      0.99939     1.98127    0.00804     2.98871
      C   16    0.10821      0.99949     1.88197    0.01033     2.89179
      C   17   -0.31841      0.99969     2.31528    0.00343     3.31841
      C   18   -0.20653      0.99956     2.19832    0.00865     3.20653
      C   19   -0.26361      0.99952     2.25345    0.01064     3.26361
      C   20    0.39107      0.99967     1.59290    0.01635     2.60893
      O   21   -0.34075      0.99981     3.32682    0.01412     4.34075
      O   22   -0.28329      0.99991     3.27289    0.01049     4.28329
      N   23   -0.19187      0.99971     2.67364    0.01851     3.69187
      C   24    0.08044      0.99927     1.91033    0.00996     2.91956
      C   25   -0.01458      0.99927     2.00639    0.00891     3.01458
      C   26   -0.01949      0.99928     2.00961    0.01059     3.01949
      C   27    0.10358      0.99943     1.88699    0.01000     2.89642
      C   28   -0.31426      0.99970     2.31078    0.00378     3.31426
      C   29   -0.13082      0.99971     2.12491    0.00620     3.13082
      C   30   -0.14355      0.99975     2.13891    0.00488     3.14355
      N   31   -0.23434      0.99966     2.71579    0.01889     3.73434
      C   32    0.11648      0.99954     1.87399    0.00999     2.88352
      C   33    0.02554      0.99919     1.96591    0.00936     2.97446
      C   34   -0.03697      0.99910     2.02673    0.01114     3.03697
      C   35    0.13633      0.99948     1.85394    0.01025     2.86367
      C   36   -0.31339      0.99968     2.31020    0.00352     3.31339
      C   37   -0.15650      0.99972     2.15021    0.00657     3.15650
      C   38   -0.10805      0.99974     2.10300    0.00531     3.10805
      N   39   -0.20864      0.99971     2.69103    0.01790     3.70864
      C   40    0.08701      0.99928     1.90300    0.01072     2.91299
      C   41   -0.00787      0.99935     1.99944    0.00909     3.00787
      C   42   -0.01050      0.99924     2.00147    0.00980     3.01050
      C   43    0.10003      0.99958     1.89112    0.00927     2.89997
      C   44   -0.31905      0.99968     2.31259    0.00677     3.31905
      C   45   -0.20343      0.99963     2.19865    0.00515     3.20343
      C   46   -0.27956      0.99953     2.26917    0.01086     3.27956
      C   47    0.38585      0.99951     1.59514    0.01950     2.61415
      O   48   -0.26059      0.99988     3.24814    0.01257     4.26059
      O   49   -0.35009      0.99975     3.33459    0.01574     4.35009
      H   50    0.11822      0.00000     0.38125    0.00053     0.38178
      H   51    0.11573      0.00000     0.38365    0.00062     0.38427
      H   52    0.10909      0.00000     0.39031    0.00060     0.39091
      H   53    0.20956      0.00000     0.28961    0.00083     0.29044
      H   54    0.11416      0.00000     0.38494    0.00090     0.38584
      H   55    0.11487      0.00000     0.38445    0.00068     0.38513
      H   56    0.25651      0.00000     0.24248    0.00101     0.24349
      H   57    0.12068      0.00000     0.37851    0.00081     0.37932
      H   58    0.10321      0.00000     0.39611    0.00068     0.39679
      H   59    0.12510      0.00000     0.37408    0.00083     0.37490
      H   60    0.09601      0.00000     0.40288    0.00111     0.40399
      H   61    0.26295      0.00000     0.23588    0.00116     0.23705
      H   62    0.12481      0.00000     0.37408    0.00111     0.37519
      H   63    0.11386      0.00000     0.38542    0.00073     0.38614
      H   64    0.10776      0.00000     0.39108    0.00116     0.39224
      H   65    0.10659      0.00000     0.39254    0.00087     0.39341
      H   66    0.10891      0.00000     0.39060    0.00048     0.39109
      H   67    0.11224      0.00000     0.38703    0.00072     0.38776
      H   68    0.11663      0.00000     0.38261    0.00075     0.38337
      H   69    0.09892      0.00000     0.39930    0.00178     0.40108
      H   70    0.11213      0.00000     0.38714    0.00073     0.38787
      H   71    0.10495      0.00000     0.39433    0.00072     0.39505
      H   72    0.10783      0.00000     0.39142    0.00075     0.39217
      H   73    0.10732      0.00000     0.39127    0.00141     0.39268
      H   74    0.11127      0.00000     0.38724    0.00149     0.38873
      H   75    0.11172      0.00000     0.38710    0.00118     0.38828
      H   76    0.10732      0.00000     0.39204    0.00064     0.39268
      H   77    0.10386      0.00000     0.39529    0.00086     0.39614
      H   78    0.11234      0.00000     0.38693    0.00073     0.38766
      H   79    0.09085      0.00000     0.40827    0.00088     0.40915
      H   80    0.09238      0.00000     0.40683    0.00079     0.40762
      H   81    0.11150      0.00000     0.38765    0.00085     0.38850
      H   82    0.11031      0.00000     0.38890    0.00080     0.38969
      H   83    0.10875      0.00000     0.39061    0.00064     0.39125
      H   84    0.11279      0.00000     0.38644    0.00077     0.38721
      H   85    0.09417      0.00000     0.40514    0.00069     0.40583
      H   86    0.09606      0.00000     0.40300    0.00094     0.40394
      H   87    0.10874      0.00000     0.39034    0.00091     0.39126
 =======================================================================
   * Total *    2.00000     56.97129   123.49347    0.53524   181.00000

 Normal termination of Gaussian 16 at Sun Jan 15 10:31:46 2023.
