 Gaussian 16, Revision A.03,
 Gaussian 16:  ES64L-G16RevA.03 25-Dec-2016

 ----------------------------------------------------------------------
 # PBE1PBE/def2TZVP empiricaldispersion=GD3BJ scf=maxcycle=999 geom=che
 ck guess=read pop=nbo
 ----------------------------------------------------------------------

 ----------
 1ebt_III_D
 ----------
 Structure from the checkpoint file:  "1ebt_III_Dn.chk"
 Charge =  1 Multiplicity = 2

                         Standard orientation:
 ---------------------------------------------------------------------
 Center     Atomic      Atomic             Coordinates (Angstroms)
 Number     Number       Type             X           Y           Z
 ---------------------------------------------------------------------
      1          6           0       -1.719666    0.749413    5.201262
      2          6           0       -1.350137    0.172314    3.843435
      3          7           0       -0.851877   -1.119933    3.711738
      4          6           0       -1.381084    0.777315    2.582352
      5          6           0       -0.581578   -1.255669    2.369426
      6          7           0       -0.920673   -0.159083    1.712654
      7          6           0       -0.724808    0.527829   -2.907578
      8          7           0       -0.519451   -0.746314   -2.995834
      9         26           0       -0.761399   -0.020771   -0.426811
     10          6           0        2.526595   -0.621362   -0.204143
     11          6           0       -1.360303   -3.321103   -1.127825
     12          6           0       -4.114177    0.478387   -0.350188
     13          6           0       -0.236191    3.352273   -0.181394
     14          7           0        0.267109   -1.640626   -0.590681
     15          6           0        1.663995   -1.691748   -0.364607
     16          6           0        2.095322   -3.048907   -0.451256
     17          6           0        1.046931   -3.799444   -0.708588
     18          6           0       -0.093615   -2.942664   -0.795155
     19          6           0        1.014553   -5.324401   -0.899695
     20          6           0        3.540073   -3.541708   -0.281667
     21          6           0        3.808155   -4.025997    1.141643
     22          6           0        3.981780   -2.878720    2.107700
     23          8           0        4.972742   -2.127971    1.981128
     24          8           0        3.021938   -2.598352    2.837041
     25          7           0       -2.436523   -1.198209   -0.651697
     26          6           0       -2.426476   -2.479874   -1.069534
     27          6           0       -3.777180   -2.934264   -1.298749
     28          6           0       -4.585381   -1.911841   -1.054954
     29          6           0       -3.734432   -0.789324   -0.695123
     30          6           0       -4.036872   -4.383158   -1.763129
     31          6           0       -6.128625   -1.865494   -1.179118
     32          6           0       -6.771571   -1.035315   -0.379847
     33          7           0       -1.866845    1.550238   -0.256047
     34          6           0       -3.268749    1.581697   -0.273992
     35          6           0       -3.710078    2.939330   -0.210467
     36          6           0       -2.643728    3.719326   -0.183570
     37          6           0       -1.517084    2.881902   -0.196543
     38          6           0       -5.186643    3.396044   -0.220825
     39          6           0       -2.549170    5.272838   -0.085066
     40          6           0       -3.478957    5.965133    0.616926
     41          7           0        0.813976    1.183536   -0.209170
     42          6           0        0.853995    2.525630   -0.176130
     43          6           0        2.261800    2.959880   -0.142712
     44          6           0        3.031456    1.868106   -0.119142
     45          6           0        2.147385    0.706741   -0.218689
     46          6           0        2.642658    4.452183   -0.055309
     47          6           0        4.560365    1.785063   -0.098766
     48          6           0        5.182722    2.134431   -1.480446
     49          6           0        6.692821    2.229888   -1.524340
     50          8           0        7.303734    1.143229   -1.644333
     51          8           0        7.217675    3.371409   -1.364098
     52          1           0       -2.439329    1.530753    5.072840
     53          1           0       -2.136105   -0.021684    5.815174
     54          1           0       -0.843530    1.145164    5.671014
     55          1           0       -1.701149    1.771733    2.350858
     56          1           0       -0.719465   -1.799760    4.433057
     57          1           0       -0.155830   -2.127983    1.919196
     58          1           0       -0.894672    1.581735   -2.834578
     59          1           0        8.204975    1.133202   -1.974884
     60          1           0        4.876681    1.386139   -2.181373
     61          1           0        4.781134    3.074137   -1.797588
     62          1           0        4.935611    2.468517    0.634024
     63          1           0        4.850676    0.791343    0.171681
     64          1           0        3.564033   -0.838763   -0.058000
     65          1           0        2.985695   -4.629897    1.463768
     66          1           0        4.697975   -4.620230    1.144548
     67          1           0        4.210956   -2.739830   -0.509279
     68          1           0        3.715779   -4.347726   -0.963108
     69          1           0        0.393460   -5.565837   -1.736865
     70          1           0        2.007060   -5.682815   -1.076807
     71          1           0        0.620601   -5.786012   -0.018436
     72          1           0       -1.523049   -4.328325   -1.450188
     73          1           0       -4.513331   -4.370675   -2.721112
     74          1           0       -3.106615   -4.907051   -1.834254
     75          1           0       -4.670696   -4.876167   -1.055945
     76          1           0       -6.234367   -0.485359    0.364371
     77          1           0       -7.830100   -0.912131   -0.475988
     78          1           0       -6.650740   -2.479975   -1.882473
     79          1           0       -5.147205    0.635271   -0.119667
     80          1           0       -5.264841    4.338929   -0.720578
     81          1           0       -5.781056    2.669680   -0.734602
     82          1           0       -5.536225    3.495697    0.785536
     83          1           0       -0.078025    4.410487   -0.173305
     84          1           0        1.836384    5.000866    0.384883
     85          1           0        3.519743    4.561711    0.547704
     86          1           0        2.836020    4.829075   -1.037889
     87          1           0       -1.750178    5.792127   -0.571738
     88          1           0       -3.850596    6.895165    0.240329
     89          1           0       -3.841432    5.581703    1.547783
     90          1           0        4.854792   -1.175320    1.969130
 ---------------------------------------------------------------------

 SCF Done:  E(UPBE1PBE) =  -3455.38188176     A.U. after   37 cycles

 Alpha virt. eigenvalues --    0.67574   0.67624   0.67945   0.68483   0.68646
 Alpha virt. eigenvalues --    0.68984   0.69309   0.69658   0.69800   0.70154
 Alpha virt. eigenvalues --    0.70459   0.70616   0.70930   0.71024   0.71166

  Beta  occ. eigenvalues -- -256.43635 -30.20494 -26.03441 -26.02984 -26.02741
  Beta  occ. eigenvalues --  -19.34722 -19.34692 -19.26282 -19.25103 -14.54177
  Beta  occ. eigenvalues --  -14.53980 -14.49357 -14.49173 -14.49088 -14.48999
  Beta  occ. eigenvalues --  -14.48150 -10.43529 -10.43005 -10.40813 -10.37654
  Beta  occ. eigenvalues --  -10.37599 -10.37181 -10.36793 -10.36661 -10.36468
  Beta  occ. eigenvalues --  -10.36190 -10.36143 -10.35998 -10.35724 -10.33838
  Beta  occ. eigenvalues --  -10.33720 -10.33399 -10.33349 -10.33309 -10.33291
  Beta  occ. eigenvalues --  -10.33070 -10.33010 -10.32886 -10.32840 -10.32834
  Beta  occ. eigenvalues --  -10.32679 -10.32599 -10.32492 -10.32480 -10.32398
  Beta  occ. eigenvalues --  -10.32298 -10.31744 -10.31465 -10.31204 -10.31135
  Beta  occ. eigenvalues --  -10.30932 -10.30793 -10.30425 -10.30327 -10.30211
  Beta  occ. eigenvalues --   -3.55235  -2.31485  -2.30619  -2.30146  -1.25684
  Beta  occ. eigenvalues --   -1.24651  -1.14131  -1.11545  -1.10020  -1.09172
  Beta  occ. eigenvalues --   -1.09116  -1.08664  -1.07769  -1.00542  -0.99982
  Beta  occ. eigenvalues --   -0.95630  -0.94318  -0.93721  -0.93035  -0.92607
  Beta  occ. eigenvalues --   -0.92511  -0.92243  -0.89493  -0.88824  -0.88781
  Beta  occ. eigenvalues --   -0.87861  -0.87530  -0.86839  -0.84722  -0.82851
  Beta  occ. eigenvalues --   -0.82189  -0.81509  -0.80775  -0.79831  -0.79630
  Beta  occ. eigenvalues --   -0.79252  -0.77168  -0.76850  -0.74627  -0.74034
  Beta  occ. eigenvalues --   -0.73918  -0.72605  -0.71416  -0.70676  -0.70481
  Beta  occ. eigenvalues --   -0.70128  -0.69312  -0.66576  -0.66402  -0.65783
  Beta  occ. eigenvalues --   -0.65000  -0.64402  -0.63885  -0.62774  -0.62645
  Beta  occ. eigenvalues --   -0.61452  -0.60401  -0.59891  -0.59603  -0.59151
  Beta  occ. eigenvalues --   -0.59031  -0.58228  -0.58000  -0.57662  -0.57180
  Beta  occ. eigenvalues --   -0.56810  -0.56696  -0.56275  -0.56000  -0.55615
  Beta  occ. eigenvalues --   -0.54983  -0.54870  -0.54713  -0.54410  -0.54113
  Beta  occ. eigenvalues --   -0.53975  -0.53645  -0.53341  -0.53111  -0.53028
  Beta  occ. eigenvalues --   -0.52322  -0.52047  -0.51978  -0.51591  -0.51362
  Beta  occ. eigenvalues --   -0.51182  -0.50843  -0.50772  -0.50605  -0.50364
  Beta  occ. eigenvalues --   -0.50267  -0.49983  -0.49768  -0.49569  -0.49386
  Beta  occ. eigenvalues --   -0.49205  -0.48775  -0.48706  -0.48178  -0.47829
  Beta  occ. eigenvalues --   -0.47713  -0.47484  -0.46935  -0.46478  -0.46409
  Beta  occ. eigenvalues --   -0.45735  -0.45291  -0.44886  -0.44753  -0.44629
  Beta  occ. eigenvalues --   -0.44095  -0.43758  -0.43673  -0.43082  -0.42593
  Beta  occ. eigenvalues --   -0.42077  -0.41814  -0.40276  -0.40177  -0.39666
  Beta  occ. eigenvalues --   -0.39253  -0.38645  -0.38420  -0.36559  -0.36361
  Beta  occ. eigenvalues --   -0.35813  -0.34870  -0.34149  -0.33397  -0.32780
  Beta  occ. eigenvalues --   -0.32385  -0.31259  -0.31084  -0.30574
  Beta virt. eigenvalues --   -0.25441  -0.17673  -0.17188  -0.13789  -0.12751
  Beta virt. eigenvalues --   -0.12269  -0.10738  -0.10369  -0.09828  -0.08044
  Beta virt. eigenvalues --   -0.07724  -0.07519  -0.06290  -0.06015  -0.05470

 Mulliken charges and spin densities:
               1          2
     1  C   -0.373977  -0.000099
     2  C    0.114783   0.001658
     3  N   -0.211084  -0.000293
     4  C   -0.163079   0.000431
     5  C    0.019755   0.001369
     6  N   -0.023369  -0.000802
     7  C   -0.035848   0.000547
     8  N   -0.121721   0.001964
     9  Fe  -0.393766  -0.029958
    10  C   -0.464016  -0.127531
    11  C   -0.438104  -0.106163
    12  C   -0.359022  -0.091903
    13  C   -0.498935  -0.086345
    14  N    0.003859  -0.084393
    15  C    0.323878   0.255625
    16  C   -0.012406  -0.030039
    17  C   -0.062236   0.066375
    18  C    0.272432   0.185362
    19  C   -0.387597  -0.003535
    20  C   -0.292628  -0.001546
    21  C   -0.108654   0.000248
    22  C    0.248610   0.001170
    23  O   -0.329305  -0.000022
    24  O   -0.363731  -0.000068
    25  N   -0.046747  -0.065438
    26  C    0.363636   0.183026
    27  C   -0.109357  -0.009959
    28  C    0.028197   0.032884
    29  C    0.291423   0.165757
    30  C   -0.363953  -0.001140
    31  C   -0.234493  -0.012418
    32  C   -0.225830   0.026037
    33  N    0.043678  -0.060724
    34  C    0.165578   0.169083
    35  C   -0.010391   0.009040
    36  C   -0.006169   0.016097
    37  C    0.266667   0.161000
    38  C   -0.380039  -0.000721
    39  C   -0.231751  -0.034808
    40  C   -0.266342   0.057007
    41  N    0.028859  -0.064353
    42  C    0.313630   0.164781
    43  C   -0.065432   0.084778
    44  C   -0.042181  -0.050147
    45  C    0.337648   0.251465
    46  C   -0.382336  -0.005323
    47  C   -0.342190   0.000193
    48  C   -0.140645  -0.000484
    49  C    0.274382  -0.000147
    50  O   -0.321135  -0.000017
    51  O   -0.373558   0.000296
    52  H    0.145366   0.000019
    53  H    0.138174   0.000042
    54  H    0.156007   0.000107
    55  H    0.152185  -0.000287
    56  H    0.256390   0.000001
    57  H    0.174609  -0.000531
    58  H    0.243420  -0.000159
    59  H    0.356838  -0.000006
    60  H    0.123784   0.000089
    61  H    0.136351   0.000030
    62  H    0.153329  -0.000359
    63  H    0.083327  -0.000264
    64  H    0.083511   0.005758
    65  H    0.116327  -0.000075
    66  H    0.135558   0.000013
    67  H    0.146287  -0.000154
    68  H    0.151083   0.000092
    69  H    0.147835   0.001952
    70  H    0.138691   0.000185
    71  H    0.162138   0.004645
    72  H    0.096842   0.004831
    73  H    0.153254   0.000937
    74  H    0.124444  -0.000126
    75  H    0.156241   0.000946
    76  H    0.138700  -0.001162
    77  H    0.143026  -0.001021
    78  H    0.144981   0.000752
    79  H    0.092060   0.003753
    80  H    0.162279   0.000173
    81  H    0.145108   0.000186
    82  H    0.150200   0.001932
    83  H    0.117926   0.003318
    84  H    0.139339   0.000979
    85  H    0.157141   0.001753
    86  H    0.163806   0.005875
    87  H    0.141626   0.003945
    88  H    0.161530  -0.003156
    89  H    0.146397  -0.002819
    90  H    0.348903  -0.000012
 Sum of Mulliken charges =   1.00000   1.00000

 Dipole moment (field-independent basis, Debye):
    X=             -3.2402    Y=             -2.0868    Z=              0.9922  Tot=              3.9797
 Quadrupole moment (field-independent basis, Debye-Ang):
   XX=           -216.1895   YY=           -231.9182   ZZ=           -269.4705
   XY=            -25.8305   XZ=            -10.9531   YZ=              5.2417

 Summary of Natural Population Analysis:

                                       Natural Population
                Natural  -----------------------------------------------
    Atom  No    Charge         Core      Valence    Rydberg      Total
 -----------------------------------------------------------------------
      C    1   -0.32201      0.99969     2.31915    0.00317     3.32201
      C    2    0.07127      0.99963     1.92160    0.00750     2.92873
      N    3   -0.24459      0.99972     2.73564    0.00923     3.74459
      C    4   -0.04665      0.99951     2.03737    0.00977     3.04665
      C    5    0.09774      0.99968     1.89362    0.00896     2.90226
      N    6   -0.17870      0.99967     2.65332    0.02570     3.67870
      C    7    0.05080      0.99973     1.94123    0.00823     2.94920
      N    8   -0.11792      0.99988     2.60683    0.01120     3.61792
     Fe    9    0.11359      8.99422     3.86710    0.02509    12.88641
      C   10   -0.18463      0.99946     2.17657    0.00860     3.18463
      C   11   -0.15888      0.99944     2.15127    0.00817     3.15888
      C   12   -0.16073      0.99947     2.15298    0.00828     3.16073
      C   13   -0.16509      0.99945     2.15747    0.00818     3.16509
      N   14   -0.23181      0.99967     2.71011    0.02204     3.73181
      C   15    0.22671      0.99948     1.76359    0.01022     2.77329
      C   16   -0.02210      0.99932     2.01272    0.01006     3.02210
      C   17    0.03725      0.99932     1.95483    0.00860     2.96275
      C   18    0.18582      0.99949     1.80420    0.01048     2.81418
      C   19   -0.32018      0.99970     2.31702    0.00346     3.32018
      C   20   -0.20676      0.99966     2.20060    0.00650     3.20676
      C   21   -0.24697      0.99962     2.23888    0.00847     3.24697
      C   22    0.38464      0.99975     1.59724    0.01837     2.61536
      O   23   -0.33171      0.99980     3.31771    0.01421     4.33171
      O   24   -0.30005      0.99989     3.28779    0.01237     4.30005
      N   25   -0.22428      0.99967     2.70058    0.02403     3.72428
      C   26    0.19191      0.99950     1.79793    0.01066     2.80809
      C   27    0.00507      0.99937     1.98754    0.00803     2.99493
      C   28   -0.01553      0.99931     2.00603    0.01019     3.01553
      C   29    0.18434      0.99951     1.80589    0.01026     2.81566
      C   30   -0.31539      0.99969     2.31218    0.00351     3.31539
      C   31   -0.10429      0.99954     2.09597    0.00879     3.10429
      C   32   -0.16536      0.99958     2.15781    0.00797     3.16536
      N   33   -0.22904      0.99967     2.70752    0.02185     3.72904
      C   34    0.17528      0.99950     1.81529    0.00993     2.82472
      C   35    0.01336      0.99933     1.97844    0.00887     2.98664
      C   36   -0.03129      0.99925     2.02082    0.01121     3.03129
      C   37    0.17113      0.99946     1.81951    0.00991     2.82887
      C   38   -0.31899      0.99970     2.31577    0.00353     3.31899
      C   39   -0.12120      0.99960     2.11233    0.00927     3.12120
      C   40   -0.14890      0.99964     2.14097    0.00829     3.14890
      N   41   -0.22383      0.99967     2.70154    0.02263     3.72383
      C   42    0.17592      0.99953     1.81422    0.01032     2.82408
      C   43    0.05447      0.99939     1.93822    0.00791     2.94553
      C   44   -0.03782      0.99938     2.02910    0.00934     3.03782
      C   45    0.22934      0.99952     1.76139    0.00976     2.77066
      C   46   -0.32345      0.99970     2.32021    0.00354     3.32345
      C   47   -0.20274      0.99966     2.19698    0.00610     3.20274
      C   48   -0.24452      0.99962     2.23652    0.00838     3.24452
      C   49    0.37816      0.99975     1.60437    0.01771     2.62184
      O   50   -0.32285      0.99981     3.30969    0.01335     4.32285
      O   51   -0.29733      0.99990     3.28585    0.01158     4.29733
      H   52    0.11714      0.00000     0.38236    0.00050     0.38286
      H   53    0.11177      0.00000     0.38758    0.00065     0.38823
      H   54    0.11583      0.00000     0.38349    0.00068     0.38417
      H   55    0.11488      0.00000     0.38433    0.00079     0.38512
      H   56    0.21680      0.00000     0.28231    0.00089     0.28320
      H   57    0.11175      0.00000     0.38726    0.00099     0.38825
      H   58    0.13348      0.00000     0.36501    0.00150     0.36652
      H   59    0.25914      0.00000     0.23956    0.00130     0.24086
      H   60    0.10944      0.00000     0.38983    0.00073     0.39056
      H   61    0.11927      0.00000     0.38010    0.00063     0.38073
      H   62    0.11727      0.00000     0.38184    0.00088     0.38273
      H   63    0.09920      0.00000     0.39970    0.00110     0.40080
      H   64    0.11089      0.00000     0.38768    0.00143     0.38911
      H   65    0.11775      0.00000     0.38162    0.00063     0.38225
      H   66    0.11696      0.00000     0.38239    0.00065     0.38304
      H   67    0.10981      0.00000     0.38937    0.00082     0.39019
      H   68    0.11773      0.00000     0.38154    0.00073     0.38227
      H   69    0.11482      0.00000     0.38455    0.00063     0.38518
      H   70    0.11359      0.00000     0.38573    0.00068     0.38641
      H   71    0.11859      0.00000     0.38076    0.00065     0.38141
      H   72    0.11367      0.00000     0.38486    0.00147     0.38633
      H   73    0.11791      0.00000     0.38141    0.00068     0.38209
      H   74    0.10561      0.00000     0.39382    0.00056     0.39439
      H   75    0.11800      0.00000     0.38134    0.00066     0.38200
      H   76    0.09221      0.00000     0.40700    0.00079     0.40779
      H   77    0.10626      0.00000     0.39313    0.00062     0.39374
      H   78    0.11298      0.00000     0.38622    0.00080     0.38702
      H   79    0.11683      0.00000     0.38186    0.00131     0.38317
      H   80    0.12112      0.00000     0.37820    0.00068     0.37888
      H   81    0.11083      0.00000     0.38850    0.00067     0.38917
      H   82    0.11557      0.00000     0.38378    0.00065     0.38443
      H   83    0.11718      0.00000     0.38152    0.00130     0.38282
      H   84    0.11173      0.00000     0.38766    0.00061     0.38827
      H   85    0.11914      0.00000     0.38015    0.00071     0.38086
      H   86    0.12051      0.00000     0.37882    0.00067     0.37949
      H   87    0.10913      0.00000     0.38996    0.00091     0.39087
      H   88    0.10510      0.00000     0.39416    0.00074     0.39490
      H   89    0.10078      0.00000     0.39829    0.00093     0.39922
      H   90    0.25814      0.00000     0.24058    0.00128     0.24186
 =======================================================================
   * Total *    1.00000     58.97348   129.43980    0.58672   189.00000

 Normal termination of Gaussian 16 at Wed Dec 28 05:12:54 2022.
