 Gaussian 16, Revision A.03,
 Gaussian 16:  ES64L-G16RevA.03 25-Dec-2016

 ----------------------------------------------------------------------
 # PBE1PBE/def2TZVP scf=maxcycle=999 empiricaldispersion=GD3BJ int=(gri
 d=ultrafine) geom=check pop=nbo
 ----------------------------------------------------------------------

 ----------
 1ebt_III_H
 ----------
 Structure from the checkpoint file:  "1ebt_III_H.chk"
 Charge =  1 Multiplicity = 6

                         Standard orientation:
 ---------------------------------------------------------------------
 Center     Atomic      Atomic             Coordinates (Angstroms)
 Number     Number       Type             X           Y           Z
 ---------------------------------------------------------------------
      1          6           0       -1.719666    0.749413    5.201262
      2          6           0       -1.350137    0.172314    3.843435
      3          7           0       -0.851877   -1.119933    3.711738
      4          6           0       -1.381084    0.777315    2.582352
      5          6           0       -0.581578   -1.255669    2.369426
      6          7           0       -0.920673   -0.159083    1.712654
      7          6           0       -0.724808    0.527829   -2.907578
      8          7           0       -0.519451   -0.746314   -2.995834
      9         26           0       -0.761399   -0.020771   -0.426811
     10          6           0        2.526595   -0.621362   -0.204143
     11          6           0       -1.360303   -3.321103   -1.127825
     12          6           0       -4.114177    0.478387   -0.350188
     13          6           0       -0.236191    3.352273   -0.181394
     14          7           0        0.267109   -1.640626   -0.590681
     15          6           0        1.663995   -1.691748   -0.364607
     16          6           0        2.095322   -3.048907   -0.451256
     17          6           0        1.046931   -3.799444   -0.708588
     18          6           0       -0.093615   -2.942664   -0.795155
     19          6           0        1.014553   -5.324401   -0.899695
     20          6           0        3.540073   -3.541708   -0.281667
     21          6           0        3.808155   -4.025997    1.141643
     22          6           0        3.981780   -2.878720    2.107700
     23          8           0        4.972742   -2.127971    1.981128
     24          8           0        3.021938   -2.598352    2.837041
     25          7           0       -2.436523   -1.198209   -0.651697
     26          6           0       -2.426476   -2.479874   -1.069534
     27          6           0       -3.777180   -2.934264   -1.298749
     28          6           0       -4.585381   -1.911841   -1.054954
     29          6           0       -3.734432   -0.789324   -0.695123
     30          6           0       -4.036872   -4.383158   -1.763129
     31          6           0       -6.128625   -1.865494   -1.179118
     32          6           0       -6.771571   -1.035315   -0.379847
     33          7           0       -1.866845    1.550238   -0.256047
     34          6           0       -3.268749    1.581697   -0.273992
     35          6           0       -3.710078    2.939330   -0.210467
     36          6           0       -2.643728    3.719326   -0.183570
     37          6           0       -1.517084    2.881902   -0.196543
     38          6           0       -5.186643    3.396044   -0.220825
     39          6           0       -2.549170    5.272838   -0.085066
     40          6           0       -3.478957    5.965133    0.616926
     41          7           0        0.813976    1.183536   -0.209170
     42          6           0        0.853995    2.525630   -0.176130
     43          6           0        2.261800    2.959880   -0.142712
     44          6           0        3.031456    1.868106   -0.119142
     45          6           0        2.147385    0.706741   -0.218689
     46          6           0        2.642658    4.452183   -0.055309
     47          6           0        4.560365    1.785063   -0.098766
     48          6           0        5.182722    2.134431   -1.480446
     49          6           0        6.692821    2.229888   -1.524340
     50          8           0        7.303734    1.143229   -1.644333
     51          8           0        7.217675    3.371409   -1.364098
     52          1           0       -2.439329    1.530753    5.072840
     53          1           0       -2.136105   -0.021684    5.815174
     54          1           0       -0.843530    1.145164    5.671014
     55          1           0       -1.701149    1.771733    2.350858
     56          1           0       -0.719465   -1.799760    4.433057
     57          1           0       -0.155830   -2.127983    1.919196
     58          1           0       -0.894672    1.581735   -2.834578
     59          1           0        8.204975    1.133202   -1.974884
     60          1           0        4.876681    1.386139   -2.181373
     61          1           0        4.781134    3.074137   -1.797588
     62          1           0        4.935611    2.468517    0.634024
     63          1           0        4.850676    0.791343    0.171681
     64          1           0        3.564033   -0.838763   -0.058000
     65          1           0        2.985695   -4.629897    1.463768
     66          1           0        4.697975   -4.620230    1.144548
     67          1           0        4.210956   -2.739830   -0.509279
     68          1           0        3.715779   -4.347726   -0.963108
     69          1           0        0.393460   -5.565837   -1.736865
     70          1           0        2.007060   -5.682815   -1.076807
     71          1           0        0.620601   -5.786012   -0.018436
     72          1           0       -1.523049   -4.328325   -1.450188
     73          1           0       -4.513331   -4.370675   -2.721112
     74          1           0       -3.106615   -4.907051   -1.834254
     75          1           0       -4.670696   -4.876167   -1.055945
     76          1           0       -6.234367   -0.485359    0.364371
     77          1           0       -7.830100   -0.912131   -0.475988
     78          1           0       -6.650740   -2.479975   -1.882473
     79          1           0       -5.147205    0.635271   -0.119667
     80          1           0       -5.264841    4.338929   -0.720578
     81          1           0       -5.781056    2.669680   -0.734602
     82          1           0       -5.536225    3.495697    0.785536
     83          1           0       -0.078025    4.410487   -0.173305
     84          1           0        1.836384    5.000866    0.384883
     85          1           0        3.519743    4.561711    0.547704
     86          1           0        2.836020    4.829075   -1.037889
     87          1           0       -1.750178    5.792127   -0.571738
     88          1           0       -3.850596    6.895165    0.240329
     89          1           0       -3.841432    5.581703    1.547783
     90          1           0        4.854792   -1.175320    1.969130
 ---------------------------------------------------------------------

 SCF Done:  E(UPBE1PBE) =  -3455.41237866     A.U. after   34 cycles

 Alpha virt. eigenvalues --    0.67804   0.68250   0.68310   0.68880   0.69021
 Alpha virt. eigenvalues --    0.69315   0.69470   0.69867   0.70062   0.70486
 Alpha virt. eigenvalues --    0.70569   0.70787   0.70975   0.71446   0.71943

  Beta  occ. eigenvalues -- -256.56230 -30.29419 -26.12825 -26.12549 -26.12430
  Beta  occ. eigenvalues --  -19.34699 -19.34612 -19.26289 -19.25009 -14.55360
  Beta  occ. eigenvalues --  -14.54994 -14.50021 -14.49066 -14.48850 -14.48754
  Beta  occ. eigenvalues --  -14.47777 -10.43528 -10.42913 -10.42193 -10.38873
  Beta  occ. eigenvalues --  -10.36912 -10.36884 -10.36555 -10.36414 -10.35995
  Beta  occ. eigenvalues --  -10.35818 -10.35750 -10.35574 -10.34990 -10.34284
  Beta  occ. eigenvalues --  -10.33618 -10.33278 -10.33222 -10.33214 -10.33167
  Beta  occ. eigenvalues --  -10.32923 -10.32876 -10.32792 -10.32686 -10.32670
  Beta  occ. eigenvalues --  -10.32500 -10.32480 -10.32376 -10.32360 -10.32099
  Beta  occ. eigenvalues --  -10.32087 -10.31736 -10.31368 -10.31344 -10.31050
  Beta  occ. eigenvalues --  -10.30927 -10.30572 -10.30225 -10.30223 -10.29903
  Beta  occ. eigenvalues --   -3.58524  -2.33339  -2.32692  -2.32568  -1.25662
  Beta  occ. eigenvalues --   -1.24570  -1.15152  -1.11546  -1.10112  -1.09162
  Beta  occ. eigenvalues --   -1.09079  -1.08664  -1.07741  -1.01601  -1.01299
  Beta  occ. eigenvalues --   -0.95504  -0.94287  -0.93648  -0.93038  -0.92410
  Beta  occ. eigenvalues --   -0.92396  -0.92054  -0.89662  -0.89430  -0.88630
  Beta  occ. eigenvalues --   -0.87607  -0.87246  -0.86711  -0.84610  -0.82666
  Beta  occ. eigenvalues --   -0.82079  -0.81665  -0.81313  -0.79819  -0.79590
  Beta  occ. eigenvalues --   -0.79142  -0.77038  -0.76702  -0.74950  -0.74616
  Beta  occ. eigenvalues --   -0.74093  -0.73882  -0.71412  -0.71232  -0.70696
  Beta  occ. eigenvalues --   -0.69942  -0.69289  -0.66379  -0.66278  -0.65960
  Beta  occ. eigenvalues --   -0.65799  -0.64663  -0.63833  -0.62686  -0.62602
  Beta  occ. eigenvalues --   -0.61513  -0.60465  -0.59922  -0.59485  -0.59182
  Beta  occ. eigenvalues --   -0.58982  -0.58646  -0.58147  -0.57811  -0.57264
  Beta  occ. eigenvalues --   -0.56894  -0.56817  -0.56690  -0.56371  -0.55755
  Beta  occ. eigenvalues --   -0.55191  -0.55066  -0.54817  -0.54402  -0.54283
  Beta  occ. eigenvalues --   -0.54156  -0.53892  -0.53487  -0.53118  -0.53001
  Beta  occ. eigenvalues --   -0.52397  -0.52220  -0.52143  -0.51838  -0.51767
  Beta  occ. eigenvalues --   -0.51394  -0.51028  -0.50998  -0.50779  -0.50728
  Beta  occ. eigenvalues --   -0.50476  -0.50282  -0.49714  -0.49617  -0.49402
  Beta  occ. eigenvalues --   -0.49271  -0.49166  -0.48724  -0.48255  -0.47835
  Beta  occ. eigenvalues --   -0.47783  -0.47626  -0.46891  -0.46790  -0.46502
  Beta  occ. eigenvalues --   -0.46224  -0.45892  -0.45596  -0.44986  -0.44849
  Beta  occ. eigenvalues --   -0.44545  -0.44365  -0.44095  -0.43902  -0.43668
  Beta  occ. eigenvalues --   -0.42902  -0.41818  -0.41078  -0.40284  -0.39614
  Beta  occ. eigenvalues --   -0.39560  -0.38711  -0.38085  -0.36425  -0.35770
  Beta  occ. eigenvalues --   -0.35576  -0.34662  -0.33992  -0.33460  -0.33107
  Beta  occ. eigenvalues --   -0.30880  -0.29731
  Beta virt. eigenvalues --   -0.22072  -0.21354  -0.19556  -0.17458  -0.17129
  Beta virt. eigenvalues --   -0.16442  -0.13548  -0.12704  -0.12613  -0.10856
  Beta virt. eigenvalues --   -0.10703  -0.09818  -0.08522  -0.08043  -0.07536

 Mulliken charges and spin densities:
               1          2
     1  C   -0.372606   0.001313
     2  C    0.115334   0.008739
     3  N   -0.205314   0.003011
     4  C   -0.157949  -0.001553
     5  C    0.028926   0.004853
     6  N   -0.026967   0.086720
     7  C   -0.042004  -0.059237
     8  N   -0.094226   0.097498
     9  Fe  -0.190694   4.361090
    10  C   -0.439301  -0.030561
    11  C   -0.426834  -0.015225
    12  C   -0.344279  -0.013594
    13  C   -0.485707  -0.016621
    14  N   -0.045982   0.050246
    15  C    0.287386   0.045707
    16  C    0.001116   0.016955
    17  C   -0.057416   0.036437
    18  C    0.247321   0.013562
    19  C   -0.390376  -0.000968
    20  C   -0.292169  -0.000677
    21  C   -0.109238   0.000930
    22  C    0.250260  -0.000071
    23  O   -0.329345  -0.000015
    24  O   -0.366482   0.000239
    25  N   -0.080001   0.044660
    26  C    0.339758   0.018434
    27  C   -0.102148   0.011065
    28  C    0.030152   0.020540
    29  C    0.273070   0.012987
    30  C   -0.362860   0.000610
    31  C   -0.237979  -0.003480
    32  C   -0.227382   0.006555
    33  N    0.003746   0.063538
    34  C    0.140770   0.013659
    35  C   -0.005956   0.020673
    36  C    0.011268   0.023639
    37  C    0.241721   0.018692
    38  C   -0.380508  -0.000254
    39  C   -0.234022  -0.013725
    40  C   -0.268541   0.019412
    41  N   -0.006600   0.046158
    42  C    0.288514   0.011611
    43  C   -0.064428   0.030466
    44  C   -0.029463   0.009776
    45  C    0.305783   0.038035
    46  C   -0.383979  -0.000452
    47  C   -0.341455   0.000107
    48  C   -0.140976   0.000523
    49  C    0.274121   0.000091
    50  O   -0.321204   0.000019
    51  O   -0.373783   0.000118
    52  H    0.148000   0.000035
    53  H    0.140047   0.000335
    54  H    0.158746   0.000289
    55  H    0.160739   0.001377
    56  H    0.259920   0.001166
    57  H    0.185722   0.001029
    58  H    0.252540   0.002515
    59  H    0.356567   0.000010
    60  H    0.123453   0.000006
    61  H    0.136550  -0.000034
    62  H    0.152577   0.000407
    63  H    0.082874   0.000033
    64  H    0.081248   0.000940
    65  H    0.116136  -0.000036
    66  H    0.135620   0.000182
    67  H    0.147030   0.000108
    68  H    0.150682   0.000603
    69  H    0.147882   0.000789
    70  H    0.137440   0.000473
    71  H    0.160845   0.001555
    72  H    0.095429   0.000751
    73  H    0.151795   0.000443
    74  H    0.123633  -0.000040
    75  H    0.154831   0.000302
    76  H    0.136926  -0.000287
    77  H    0.141545  -0.000296
    78  H    0.143590   0.000636
    79  H    0.091742   0.000284
    80  H    0.162036   0.000458
    81  H    0.145983   0.000392
    82  H    0.148841   0.001045
    83  H    0.116995   0.000667
    84  H    0.138109   0.000232
    85  H    0.154917   0.000758
    86  H    0.161228   0.001226
    87  H    0.141568   0.001425
    88  H    0.161042  -0.000973
    89  H    0.144788  -0.001057
    90  H    0.349316   0.000015
 Sum of Mulliken charges =   1.00000   5.00000

 Dipole moment (field-independent basis, Debye):
    X=             -3.2261    Y=             -2.1749    Z=              1.3555  Tot=              4.1201
 Quadrupole moment (field-independent basis, Debye-Ang):
   XX=           -223.2422   YY=           -238.5827   ZZ=           -267.4421
   XY=            -26.8532   XZ=            -11.8482   YZ=              4.4437

 Summary of Natural Population Analysis:

                                       Natural Population
                Natural  -----------------------------------------------
    Atom  No    Charge         Core      Valence    Rydberg      Total
 -----------------------------------------------------------------------
      C    1   -0.32152      0.99969     2.31870    0.00313     3.32152
      C    2    0.07820      0.99963     1.91361    0.00857     2.92180
      N    3   -0.23787      0.99972     2.72936    0.00880     3.73787
      C    4   -0.04356      0.99950     2.03520    0.00887     3.04356
      C    5    0.10711      0.99964     1.88345    0.00979     2.89289
      N    6   -0.14085      0.99969     2.61957    0.02160     3.64085
      C    7    0.02693      0.99965     1.96394    0.00948     2.97307
      N    8   -0.05190      0.99988     2.54096    0.01105     3.55190
     Fe    9    2.41484      8.99429     1.55079    0.04008    10.58516
      C   10   -0.12398      0.99946     2.11625    0.00827     3.12398
      C   11   -0.10558      0.99943     2.09834    0.00781     3.10558
      C   12   -0.11116      0.99947     2.10380    0.00790     3.11116
      C   13   -0.12210      0.99945     2.11479    0.00787     3.12210
      N   14   -0.19349      0.99967     2.67352    0.02029     3.69349
      C   15    0.10469      0.99946     1.88584    0.01002     2.89531
      C   16    0.00159      0.99931     1.98929    0.00981     2.99841
      C   17    0.01721      0.99931     1.97490    0.00858     2.98279
      C   18    0.09386      0.99948     1.89624    0.01042     2.90614
      C   19   -0.31863      0.99970     2.31541    0.00352     3.31863
      C   20   -0.20686      0.99966     2.20065    0.00655     3.20686
      C   21   -0.24681      0.99962     2.23876    0.00843     3.24681
      C   22    0.38525      0.99975     1.59665    0.01835     2.61475
      O   23   -0.33171      0.99980     3.31773    0.01419     4.33171
      O   24   -0.30080      0.99989     3.28862    0.01230     4.30080
      N   25   -0.18042      0.99968     2.65898    0.02177     3.68042
      C   26    0.09143      0.99949     1.89799    0.01110     2.90857
      C   27    0.02306      0.99921     1.96703    0.01070     2.97694
      C   28   -0.02661      0.99931     2.01701    0.01029     3.02661
      C   29    0.09540      0.99950     1.89460    0.01050     2.90460
      C   30   -0.31523      0.99970     2.31214    0.00339     3.31523
      C   31   -0.10084      0.99953     2.09259    0.00872     3.10084
      C   32   -0.17581      0.99958     2.16829    0.00794     3.17581
      N   33   -0.19485      0.99968     2.67501    0.02016     3.69485
      C   34    0.08739      0.99948     1.90329    0.00984     2.91261
      C   35    0.01443      0.99933     1.97733    0.00892     2.98557
      C   36   -0.01911      0.99910     2.00652    0.01350     3.01911
      C   37    0.08498      0.99945     1.90524    0.01033     2.91502
      C   38   -0.31857      0.99969     2.31536    0.00351     3.31857
      C   39   -0.11390      0.99961     2.10537    0.00892     3.11390
      C   40   -0.16830      0.99964     2.16047    0.00819     3.16830
      N   41   -0.18517      0.99968     2.66473    0.02077     3.68517
      C   42    0.09137      0.99952     1.89873    0.01039     2.90863
      C   43    0.02110      0.99939     1.97146    0.00805     2.97890
      C   44   -0.00752      0.99937     1.99904    0.00911     3.00752
      C   45    0.10379      0.99950     1.88680    0.00990     2.89621
      C   46   -0.32043      0.99970     2.31719    0.00355     3.32043
      C   47   -0.20313      0.99966     2.19735    0.00612     3.20313
      C   48   -0.24417      0.99962     2.23619    0.00836     3.24417
      C   49    0.37830      0.99975     1.60424    0.01771     2.62170
      O   50   -0.32287      0.99981     3.30970    0.01335     4.32287
      O   51   -0.29760      0.99990     3.28612    0.01158     4.29760
      H   52    0.11820      0.00000     0.38132    0.00048     0.38180
      H   53    0.11275      0.00000     0.38662    0.00063     0.38725
      H   54    0.11709      0.00000     0.38227    0.00065     0.38291
      H   55    0.11869      0.00000     0.38056    0.00075     0.38131
      H   56    0.21866      0.00000     0.28056    0.00078     0.28134
      H   57    0.11603      0.00000     0.38309    0.00088     0.38397
      H   58    0.14145      0.00000     0.35705    0.00149     0.35855
      H   59    0.25904      0.00000     0.23965    0.00131     0.24096
      H   60    0.10944      0.00000     0.38983    0.00073     0.39056
      H   61    0.11930      0.00000     0.38006    0.00063     0.38070
      H   62    0.11746      0.00000     0.38167    0.00088     0.38254
      H   63    0.09938      0.00000     0.39953    0.00108     0.40062
      H   64    0.11091      0.00000     0.38773    0.00136     0.38909
      H   65    0.11761      0.00000     0.38176    0.00063     0.38239
      H   66    0.11706      0.00000     0.38229    0.00065     0.38294
      H   67    0.11034      0.00000     0.38885    0.00081     0.38966
      H   68    0.11778      0.00000     0.38149    0.00073     0.38222
      H   69    0.11433      0.00000     0.38505    0.00062     0.38567
      H   70    0.11288      0.00000     0.38645    0.00068     0.38712
      H   71    0.11663      0.00000     0.38272    0.00066     0.38337
      H   72    0.11355      0.00000     0.38497    0.00148     0.38645
      H   73    0.11705      0.00000     0.38227    0.00069     0.38295
      H   74    0.10567      0.00000     0.39378    0.00056     0.39433
      H   75    0.11703      0.00000     0.38230    0.00068     0.38297
      H   76    0.09225      0.00000     0.40697    0.00078     0.40775
      H   77    0.10602      0.00000     0.39336    0.00062     0.39398
      H   78    0.11244      0.00000     0.38676    0.00080     0.38756
      H   79    0.11742      0.00000     0.38132    0.00126     0.38258
      H   80    0.12054      0.00000     0.37879    0.00067     0.37946
      H   81    0.11150      0.00000     0.38785    0.00064     0.38850
      H   82    0.11506      0.00000     0.38429    0.00065     0.38494
      H   83    0.11790      0.00000     0.38080    0.00130     0.38210
      H   84    0.11106      0.00000     0.38834    0.00060     0.38894
      H   85    0.11751      0.00000     0.38177    0.00072     0.38249
      H   86    0.11704      0.00000     0.38226    0.00070     0.38296
      H   87    0.10818      0.00000     0.39092    0.00090     0.39182
      H   88    0.10597      0.00000     0.39330    0.00073     0.39403
      H   89    0.10094      0.00000     0.39812    0.00094     0.39906
      H   90    0.25832      0.00000     0.24041    0.00127     0.24168
 =======================================================================
   * Total *    3.00003     58.97299   127.43224    0.59473   186.99997

 Normal termination of Gaussian 16 at Thu Dec 29 06:13:14 2022.
