 Gaussian 16, Revision A.03,
 Gaussian 16:  ES64L-G16RevA.03 25-Dec-2016

 ----------------------------------------------------------------------
 # PBE1PBE/def2TZVP empiricaldispersion=GD3BJ scf=maxcycle=999 geom=che
 ck pop=nbo
 ----------------------------------------------------------------------

 ---------
 1ehb_II_Q
 ---------
 Structure from the checkpoint file:  "1ehb_II_Q.chk"
 Charge =  0 Multiplicity = 5

                         Standard orientation:
 ---------------------------------------------------------------------
 Center     Atomic      Atomic             Coordinates (Angstroms)
 Number     Number       Type             X           Y           Z
 ---------------------------------------------------------------------
      1          6           0       -2.131637   -0.044331    5.640119
      2          6           0       -1.686742    0.448758    4.300544
      3          7           0       -1.552855    1.779125    3.978134
      4          6           0       -1.384177   -0.239468    3.169425
      5          6           0       -1.188747    1.857196    2.695580
      6          7           0       -1.074770    0.657041    2.164493
      7          6           0        0.257533   -2.396259   -4.681022
      8          6           0       -0.054715   -1.350203   -3.664109
      9          7           0       -0.273762   -0.022499   -3.956702
     10          6           0       -0.141807   -1.445332   -2.317391
     11          6           0       -0.478391    0.620877   -2.798624
     12          7           0       -0.404225   -0.204674   -1.781650
     13         26           0       -0.728798    0.136234    0.197963
     14          6           0        2.601844   -0.285259    0.818127
     15          6           0       -1.258321   -3.210070    0.824374
     16          6           0       -4.035845    0.490128   -0.586285
     17          6           0       -0.214560    3.493861   -0.296814
     18          7           0        0.403179   -1.393623    0.708955
     19          6           0        1.784226   -1.408179    0.851047
     20          6           0        2.271609   -2.759918    1.056735
     21          6           0        1.182376   -3.557561    1.143883
     22          6           0        0.028657   -2.717280    0.924607
     23          6           0        1.138130   -5.041845    1.471580
     24          6           0        3.728532   -3.210343    1.067336
     25          6           0        4.412504   -3.174056   -0.295282
     26          6           0        3.706235   -4.028916   -1.321671
     27          8           0        3.461334   -5.216697   -1.037119
     28          8           0        3.398723   -3.512954   -2.417947
     29          7           0       -2.305852   -1.088801    0.156548
     30          6           0       -2.350842   -2.445049    0.428953
     31          6           0       -3.689749   -2.979606    0.246501
     32          6           0       -4.481517   -1.951854   -0.059538
     33          6           0       -3.623161   -0.770059   -0.178296
     34          6           0       -4.130864   -4.433068    0.360528
     35          6           0       -5.872224   -2.026925   -0.019348
     36          6           0       -6.699177   -1.793106   -1.104861
     37          7           0       -1.877072    1.664517   -0.338048
     38          6           0       -3.219516    1.619245   -0.697057
     39          6           0       -3.676592    2.915763   -1.159235
     40          6           0       -2.623614    3.776701   -1.045322
     41          6           0       -1.508436    3.002966   -0.516022
     42          6           0       -5.085561    3.251442   -1.645840
     43          6           0       -2.552457    5.101568   -1.453269
     44          6           0       -3.551075    6.065509   -1.277649
     45          7           0        0.850977    1.347323    0.251994
     46          6           0        0.896145    2.716262    0.064370
     47          6           0        2.257090    3.223776    0.301118
     48          6           0        3.057891    2.159305    0.570006
     49          6           0        2.172922    0.996862    0.543003
     50          6           0        2.692901    4.681084    0.333196
     51          6           0        4.570234    2.145375    0.862598
     52          6           0        5.418501    2.249695   -0.400396
     53          6           0        6.896050    2.467609   -0.111073
     54          8           0        7.528615    3.262176   -0.829105
     55          8           0        7.427656    1.842218    0.825966
     56          1           0        7.311744    0.891782    0.895505
     57          1           0        5.308374    1.346622   -0.963630
     58          1           0        5.059380    3.068149   -0.988669
     59          1           0        4.814986    1.234370    1.367639
     60          1           0        4.804593    2.969174    1.503949
     61          1           0        5.417702   -3.524319   -0.186687
     62          1           0        4.434308   -2.162727   -0.644047
     63          1           0        4.273294   -2.577080    1.736000
     64          1           0        3.769808   -4.212604    1.439718
     65          1           0        3.038242   -5.787523   -1.682681
     66          1           0        3.642933   -0.425455    1.021543
     67          1           0        2.041178    5.261958   -0.285466
     68          1           0        2.648207    5.044677    1.338533
     69          1           0        3.695821    4.761530   -0.030920
     70          1           0       -0.061138    4.546270   -0.414279
     71          1           0       -1.424172   -4.239444    1.064754
     72          1           0        1.045875   -5.604416    0.566096
     73          1           0        2.039089   -5.322790    1.975805
     74          1           0        0.298293   -5.242724    2.103420
     75          1           0       -5.069104    0.607905   -0.838086
     76          1           0       -5.709845    2.387272   -1.554305
     77          1           0       -5.487679    4.046338   -1.053099
     78          1           0       -5.045832    3.555787   -2.670874
     79          1           0       -4.040790   -4.909033   -0.593538
     80          1           0       -3.511561   -4.939030    1.071419
     81          1           0       -5.150111   -4.472151    0.683805
     82          1           0       -6.589861   -0.895674   -1.677194
     83          1           0       -7.447595   -2.509834   -1.371453
     84          1           0       -6.331766   -2.282309    0.912586
     85          1           0       -3.293107    7.103463   -1.245980
     86          1           0       -4.572806    5.764796   -1.174999
     87          1           0       -1.654829    5.413016   -1.945371
     88          1           0       -2.125218   -1.114293    5.646499
     89          1           0       -1.465674    0.320838    6.393806
     90          1           0       -3.122403    0.307588    5.838702
     91          1           0       -1.013072    2.772307    2.169642
     92          1           0       -1.385231   -1.305031    3.072087
     93          1           0       -1.701877    2.551733    4.595280
     94          1           0       -0.676074    1.669106   -2.714739
     95          1           0       -0.279197    0.387726   -4.868670
     96          1           0       -0.024559   -2.347617   -1.754333
     97          1           0       -0.654257   -2.792497   -5.076668
     98          1           0        0.831741   -1.963318   -5.473327
     99          1           0        0.819056   -3.183186   -4.222396
 ---------------------------------------------------------------------

 SCF Done:  E(UPBE1PBE) =  -3627.61134468     A.U. after  268 cycles

 Alpha virt. eigenvalues --    1.14370   1.14740   1.14951   1.15313   1.15426
 Alpha virt. eigenvalues --    1.15977   1.16306   1.16519   1.16624   1.17047
 Alpha virt. eigenvalues --    1.17247   1.17427   1.17699   1.18234   1.18259

  Beta  occ. eigenvalues -- -256.38559 -30.13042 -25.96448 -25.96285 -25.95323
  Beta  occ. eigenvalues --  -19.27405 -19.26261 -19.17462 -19.17433 -14.45095
  Beta  occ. eigenvalues --  -14.44567 -14.38505 -14.38201 -14.37290 -14.36966
  Beta  occ. eigenvalues --  -14.36616 -14.36526 -10.35225 -10.34743 -10.28345
  Beta  occ. eigenvalues --  -10.27940 -10.26281 -10.25536 -10.24555 -10.24319
  Beta  occ. eigenvalues --  -10.24209 -10.23887 -10.23637 -10.23606 -10.23592
  Beta  occ. eigenvalues --  -10.23303 -10.23272 -10.23220 -10.23103 -10.23083
  Beta  occ. eigenvalues --  -10.22898 -10.22847 -10.22751 -10.22557 -10.22088
  Beta  occ. eigenvalues --  -10.21958 -10.21911 -10.21612 -10.21487 -10.21348
  Beta  occ. eigenvalues --  -10.21196 -10.21138 -10.20914 -10.20905 -10.20892
  Beta  occ. eigenvalues --  -10.20856 -10.20737 -10.20718 -10.20641 -10.20170
  Beta  occ. eigenvalues --  -10.20062 -10.19661 -10.19590 -10.19328  -3.43671
  Beta  occ. eigenvalues --   -2.19877  -2.19523  -2.15776  -1.17889  -1.17122
  Beta  occ. eigenvalues --   -1.06443  -1.05957  -1.02590  -1.02322  -0.96598
  Beta  occ. eigenvalues --   -0.95531  -0.95415  -0.94408  -0.91372  -0.91093
  Beta  occ. eigenvalues --   -0.83988  -0.83469  -0.83404  -0.82122  -0.81644
  Beta  occ. eigenvalues --   -0.81479  -0.80749  -0.79947  -0.79287  -0.78629
  Beta  occ. eigenvalues --   -0.78317  -0.76667  -0.75106  -0.73825  -0.73190
  Beta  occ. eigenvalues --   -0.72822  -0.72206  -0.72087  -0.71238  -0.70438
  Beta  occ. eigenvalues --   -0.70278  -0.69281  -0.68240  -0.66598  -0.65879
  Beta  occ. eigenvalues --   -0.65213  -0.64802  -0.64497  -0.63871  -0.62322
  Beta  occ. eigenvalues --   -0.61878  -0.61629  -0.60744  -0.57871  -0.56845
  Beta  occ. eigenvalues --   -0.56470  -0.56245  -0.54909  -0.54325  -0.53884
  Beta  occ. eigenvalues --   -0.53482  -0.52870  -0.52147  -0.51493  -0.51065
  Beta  occ. eigenvalues --   -0.50896  -0.50611  -0.50205  -0.49459  -0.48573
  Beta  occ. eigenvalues --   -0.48308  -0.48165  -0.48088  -0.47774  -0.47583
  Beta  occ. eigenvalues --   -0.47488  -0.47011  -0.46813  -0.45932  -0.45475
  Beta  occ. eigenvalues --   -0.44978  -0.44275  -0.44211  -0.43970  -0.43703
  Beta  occ. eigenvalues --   -0.43617  -0.43553  -0.43401  -0.43097  -0.43043
  Beta  occ. eigenvalues --   -0.42892  -0.42721  -0.42681  -0.42549  -0.42395
  Beta  occ. eigenvalues --   -0.42343  -0.42126  -0.41993  -0.41800  -0.41688
  Beta  occ. eigenvalues --   -0.41186  -0.41029  -0.40746  -0.39643  -0.39629
  Beta  occ. eigenvalues --   -0.39283  -0.39196  -0.38864  -0.38578  -0.38365
  Beta  occ. eigenvalues --   -0.38290  -0.38148  -0.37917  -0.37688  -0.37352
  Beta  occ. eigenvalues --   -0.36994  -0.36495  -0.36256  -0.36069  -0.35702
  Beta  occ. eigenvalues --   -0.35066  -0.34831  -0.34661  -0.34043  -0.33732
  Beta  occ. eigenvalues --   -0.32924  -0.32762  -0.32505  -0.32470  -0.31628
  Beta  occ. eigenvalues --   -0.31245  -0.30970  -0.29771  -0.27631  -0.27479
  Beta  occ. eigenvalues --   -0.27288  -0.26441  -0.26135  -0.24962  -0.24640
  Beta  occ. eigenvalues --   -0.24249  -0.23995  -0.23691  -0.23003  -0.21410
  Beta  occ. eigenvalues --   -0.20623  -0.17947  -0.17169
  Beta virt. eigenvalues --   -0.07861  -0.07008  -0.04223  -0.03223  -0.02649
  Beta virt. eigenvalues --   -0.01045  -0.00927   0.01127   0.01423   0.01568
  Beta virt. eigenvalues --    0.01900   0.02028   0.02377   0.03002   0.03032

 Mulliken charges and spin densities:
               1          2
     1  C   -0.384742   0.001063
     2  C    0.165102   0.002219
     3  N   -0.217319   0.003671
     4  C   -0.204208   0.003791
     5  C    0.032329   0.009861
     6  N    0.033326   0.035014
     7  C   -0.384988   0.001055
     8  C    0.151606   0.002618
     9  N   -0.218923   0.003901
    10  C   -0.166097   0.003087
    11  C    0.029660   0.009801
    12  N    0.054910   0.040040
    13  Fe  -0.242814   3.007974
    14  C   -0.472849  -0.086445
    15  C   -0.620796   0.195694
    16  C   -0.445791  -0.035436
    17  C   -0.619315   0.224889
    18  N   -0.013224  -0.067688
    19  C    0.281670   0.146556
    20  C   -0.141386  -0.008213
    21  C    0.004394   0.107018
    22  C    0.165316  -0.006197
    23  C   -0.397535  -0.009878
    24  C   -0.240756  -0.002187
    25  C   -0.142071   0.001822
    26  C    0.276701  -0.000651
    27  O   -0.319816   0.000019
    28  O   -0.393856   0.000056
    29  N   -0.019124   0.021065
    30  C    0.304686  -0.037633
    31  C   -0.062308   0.061450
    32  C    0.062194  -0.045316
    33  C    0.212908   0.091728
    34  C   -0.388119  -0.003530
    35  C   -0.303865   0.094196
    36  C   -0.278433  -0.105556
    37  N   -0.001082  -0.055074
    38  C    0.299496   0.118872
    39  C   -0.105875   0.019443
    40  C    0.063432   0.116359
    41  C    0.103662  -0.030331
    42  C   -0.389909  -0.004386
    43  C   -0.219229  -0.101772
    44  C   -0.292136   0.171050
    45  N    0.003356   0.004738
    46  C    0.287409  -0.056503
    47  C   -0.063224   0.085693
    48  C    0.018519  -0.050067
    49  C    0.294942   0.116052
    50  C   -0.404532  -0.005701
    51  C   -0.386704   0.003591
    52  C   -0.245798  -0.001841
    53  C    0.297423  -0.000145
    54  O   -0.342881  -0.000107
    55  O   -0.311946   0.000028
    56  H    0.346937   0.000009
    57  H    0.139681   0.000577
    58  H    0.131143   0.000021
    59  H    0.086549  -0.000093
    60  H    0.140820  -0.000718
    61  H    0.110991   0.000841
    62  H    0.121559  -0.000363
    63  H    0.120397   0.000017
    64  H    0.109737  -0.000392
    65  H    0.341689   0.000023
    66  H    0.072538   0.003358
    67  H    0.132922   0.001845
    68  H    0.137123   0.004131
    69  H    0.133477   0.000622
    70  H    0.105217  -0.012898
    71  H    0.091632  -0.011832
    72  H    0.119560   0.005777
    73  H    0.126717   0.001245
    74  H    0.133137   0.002926
    75  H    0.087891   0.001217
    76  H    0.116342   0.000181
    77  H    0.121736   0.002380
    78  H    0.143301   0.001303
    79  H    0.139626   0.002891
    80  H    0.123042   0.002076
    81  H    0.130313   0.000209
    82  H    0.134219   0.006832
    83  H    0.135767   0.007040
    84  H    0.139376  -0.007076
    85  H    0.125153  -0.009128
    86  H    0.114874  -0.007562
    87  H    0.114762   0.006824
    88  H    0.145470   0.000059
    89  H    0.134600   0.000068
    90  H    0.139000   0.000094
    91  H    0.186549   0.001027
    92  H    0.154691   0.000604
    93  H    0.234286   0.002125
    94  H    0.172996   0.000584
    95  H    0.233449   0.002143
    96  H    0.144212   0.001059
    97  H    0.141278   0.000043
    98  H    0.121404   0.000120
    99  H    0.162446   0.000032
 Sum of Mulliken charges =  -0.00000   4.00000

 Dipole moment (field-independent basis, Debye):
    X=             -2.6334    Y=             -5.3216    Z=              3.2262  Tot=              6.7574
 Quadrupole moment (field-independent basis, Debye-Ang):
   XX=           -358.4780   YY=           -316.1816   ZZ=           -282.9911
   XY=            -30.9938   XZ=              6.4118   YZ=             14.7870

 Summary of Natural Population Analysis:

                                       Natural Population
                Natural  -----------------------------------------------
    Atom  No    Charge         Core      Valence    Rydberg      Total
 -----------------------------------------------------------------------
      C    1   -0.31826      0.99969     2.31549    0.00308     3.31826
      C    2    0.04969      0.99955     1.94167    0.00909     2.95031
      N    3   -0.24004      0.99968     2.73064    0.00971     3.74004
      C    4   -0.02793      0.99944     2.01940    0.00910     3.02793
      C    5    0.11297      0.99966     1.87694    0.01044     2.88703
      N    6   -0.15618      0.99972     2.63601    0.02044     3.65618
      C    7   -0.31974      0.99969     2.31686    0.00319     3.31974
      C    8    0.05432      0.99953     1.93693    0.00922     2.94568
      N    9   -0.23910      0.99969     2.72973    0.00969     3.73910
      C   10   -0.02698      0.99943     2.01861    0.00894     3.02698
      C   11    0.11251      0.99965     1.87720    0.01064     2.88749
      N   12   -0.15254      0.99971     2.63154    0.02129     3.65254
     Fe   13    1.65147      8.99475     2.32598    0.02779    11.34853
      C   14   -0.14468      0.99948     2.13659    0.00862     3.14468
      C   15   -0.08721      0.99947     2.07932    0.00841     3.08721
      C   16   -0.12211      0.99949     2.11428    0.00834     3.12211
      C   17   -0.08332      0.99950     2.07561    0.00822     3.08332
      N   18   -0.22322      0.99969     2.70159    0.02194     3.72322
      C   19    0.12684      0.99950     1.86317    0.01049     2.87316
      C   20   -0.01981      0.99940     2.01085    0.00956     3.01981
      C   21    0.02405      0.99940     1.96780    0.00875     2.97595
      C   22    0.08249      0.99949     1.90778    0.01023     2.91751
      C   23   -0.31886      0.99970     2.31556    0.00360     3.31886
      C   24   -0.21051      0.99966     2.20358    0.00726     3.21051
      C   25   -0.24579      0.99962     2.23757    0.00860     3.24579
      C   26    0.38570      0.99976     1.59604    0.01850     2.61430
      O   27   -0.32194      0.99981     3.30848    0.01366     4.32194
      O   28   -0.31290      0.99989     3.30071    0.01229     4.31290
      N   29   -0.19268      0.99969     2.67077    0.02222     3.69268
      C   30    0.07931      0.99952     1.91098    0.01019     2.92069
      C   31    0.02015      0.99938     1.97189    0.00857     2.97985
      C   32   -0.07029      0.99936     2.05972    0.01121     3.07029
      C   33    0.11709      0.99952     1.87287    0.01052     2.88291
      C   34   -0.31772      0.99970     2.31443    0.00358     3.31772
      C   35   -0.04661      0.99960     2.03620    0.01080     3.04661
      C   36   -0.23998      0.99968     2.23139    0.00891     3.23998
      N   37   -0.22202      0.99969     2.70034    0.02199     3.72202
      C   38    0.11159      0.99951     1.87815    0.01074     2.88841
      C   39    0.01218      0.99945     1.98005    0.00832     2.98782
      C   40   -0.02943      0.99943     2.01952    0.01049     3.02943
      C   41    0.08574      0.99954     1.90429    0.01043     2.91426
      C   42   -0.31647      0.99970     2.31285    0.00393     3.31647
      C   43   -0.13160      0.99961     2.12251    0.00948     3.13160
      C   44   -0.13208      0.99970     2.12623    0.00615     3.13208
      N   45   -0.19789      0.99969     2.67547    0.02273     3.69789
      C   46    0.06929      0.99954     1.92074    0.01043     2.93071
      C   47    0.01828      0.99943     1.97408    0.00822     2.98172
      C   48   -0.03157      0.99940     2.02276    0.00941     3.03157
      C   49    0.11414      0.99949     1.87594    0.01043     2.88586
      C   50   -0.32050      0.99970     2.31711    0.00370     3.32050
      C   51   -0.20973      0.99967     2.20283    0.00723     3.20973
      C   52   -0.25697      0.99963     2.24873    0.00861     3.25697
      C   53    0.38179      0.99975     1.60040    0.01806     2.61821
      O   54   -0.28249      0.99989     3.27052    0.01208     4.28249
      O   55   -0.32943      0.99979     3.31422    0.01542     4.32943
      H   56    0.25233      0.00000     0.24653    0.00113     0.24767
      H   57    0.11364      0.00000     0.38562    0.00073     0.38636
      H   58    0.11968      0.00000     0.37954    0.00078     0.38032
      H   59    0.10233      0.00000     0.39678    0.00089     0.39767
      H   60    0.10909      0.00000     0.38975    0.00116     0.39091
      H   61    0.11271      0.00000     0.38660    0.00069     0.38729
      H   62    0.11904      0.00000     0.38026    0.00071     0.38096
      H   63    0.10803      0.00000     0.39117    0.00080     0.39197
      H   64    0.10940      0.00000     0.38973    0.00087     0.39060
      H   65    0.25498      0.00000     0.24337    0.00165     0.24502
      H   66    0.10068      0.00000     0.39780    0.00151     0.39932
      H   67    0.11069      0.00000     0.38868    0.00063     0.38931
      H   68    0.11133      0.00000     0.38790    0.00077     0.38867
      H   69    0.10937      0.00000     0.38982    0.00081     0.39063
      H   70    0.10715      0.00000     0.39153    0.00133     0.39285
      H   71    0.10491      0.00000     0.39372    0.00137     0.39509
      H   72    0.10909      0.00000     0.39003    0.00088     0.39091
      H   73    0.10832      0.00000     0.39091    0.00077     0.39168
      H   74    0.11019      0.00000     0.38910    0.00071     0.38981
      H   75    0.10585      0.00000     0.39276    0.00139     0.39415
      H   76    0.10646      0.00000     0.39296    0.00058     0.39354
      H   77    0.10765      0.00000     0.39139    0.00097     0.39235
      H   78    0.11221      0.00000     0.38689    0.00090     0.38779
      H   79    0.11251      0.00000     0.38671    0.00078     0.38749
      H   80    0.10780      0.00000     0.39156    0.00064     0.39220
      H   81    0.11092      0.00000     0.38826    0.00082     0.38908
      H   82    0.09977      0.00000     0.39916    0.00107     0.40023
      H   83    0.10268      0.00000     0.39650    0.00082     0.39732
      H   84    0.10085      0.00000     0.39767    0.00148     0.39915
      H   85    0.09604      0.00000     0.40323    0.00073     0.40396
      H   86    0.09029      0.00000     0.40867    0.00104     0.40971
      H   87    0.10287      0.00000     0.39615    0.00098     0.39713
      H   88    0.11785      0.00000     0.38169    0.00046     0.38215
      H   89    0.10896      0.00000     0.39030    0.00074     0.39104
      H   90    0.11013      0.00000     0.38914    0.00074     0.38987
      H   91    0.11582      0.00000     0.38339    0.00079     0.38418
      H   92    0.11691      0.00000     0.38233    0.00075     0.38309
      H   93    0.20903      0.00000     0.29019    0.00078     0.29097
      H   94    0.11337      0.00000     0.38582    0.00081     0.38663
      H   95    0.20900      0.00000     0.29021    0.00079     0.29100
      H   96    0.11718      0.00000     0.38192    0.00090     0.38282
      H   97    0.10981      0.00000     0.38949    0.00070     0.39019
      H   98    0.10858      0.00000     0.39075    0.00067     0.39142
      H   99    0.12352      0.00000     0.37579    0.00069     0.37648
 =======================================================================
   * Total *    2.00000     62.97314   139.38267    0.64419   203.00000

 Normal termination of Gaussian 16 at Mon Apr 10 07:29:32 2023.
