 Gaussian 16, Revision A.03,
 Gaussian 16:  AM64L-G16RevA.03 25-Dec-2016

 ----------------------------------------------------------------------
 # PBE1PBE/def2TZVP empiricaldispersion=GD3BJ int=(grid=ultrafine) geom
 =check pop=nbo
 ----------------------------------------------------------------------

 ---------
 1es1_II_Q
 ---------
 Structure from the checkpoint file:  "1es1_II_Q.chk"
 Charge =  0 Multiplicity = 5

                         Standard orientation:
 ---------------------------------------------------------------------
 Center     Atomic      Atomic             Coordinates (Angstroms)
 Number     Number       Type             X           Y           Z
 ---------------------------------------------------------------------
      1          6           0       -2.376143   -0.158234    5.582419
      2          6           0       -1.849930    0.387159    4.293872
      3          7           0       -1.578163    1.720338    4.069240
      4          6           0       -1.548717   -0.252873    3.136194
      5          6           0       -1.134542    1.839813    2.814967
      6          7           0       -1.100846    0.666369    2.211854
      7          6           0        0.492488   -2.311109   -4.720870
      8          6           0        0.137980   -1.290222   -3.691599
      9          7           0        0.064346    0.060284   -3.940392
     10          6           0       -0.100267   -1.434919   -2.365205
     11          6           0       -0.206164    0.674143   -2.783848
     12          7           0       -0.314690   -0.196163   -1.801193
     13          6           0        2.580579   -0.318988    0.848554
     14          6           0       -1.264239   -3.212404    0.802467
     15          6           0       -4.021767    0.450955   -0.689125
     16          6           0       -0.217458    3.474221   -0.347774
     17          6           0        1.777270   -1.444853    0.838492
     18          6           0        2.264017   -2.780018    1.073423
     19          6           0        1.170587   -3.578740    1.124239
     20          6           0        0.017919   -2.732608    0.892698
     21          6           0        1.165071   -5.080504    1.305762
     22          6           0        3.705352   -3.264006    1.184463
     23          6           0        4.484369   -3.201514   -0.122651
     24          6           0        3.787773   -3.935281   -1.247163
     25          8           0        3.539582   -5.150158   -1.105867
     26          8           0        3.483353   -3.294029   -2.273536
     27          6           0       -2.358136   -2.441833    0.423677
     28          6           0       -3.661609   -3.015666    0.141846
     29          6           0       -4.426249   -1.992472   -0.318825
     30          6           0       -3.606946   -0.792234   -0.269507
     31          6           0       -4.035878   -4.497255    0.302308
     32          6           0       -5.654240   -2.134150   -0.940674
     33          6           0       -6.851707   -1.801503   -0.335703
     34          6           0       -3.211060    1.587157   -0.764124
     35          6           0       -3.691543    2.887398   -1.197214
     36          6           0       -2.653297    3.770407   -1.070169
     37          6           0       -1.526759    2.985827   -0.563604
     38          6           0       -5.149860    3.203268   -1.560783
     39          6           0       -2.612248    5.139281   -1.340673
     40          6           0       -3.665314    5.955020   -1.771133
     41          6           0        0.865427    2.684600    0.075569
     42          6           0        2.203748    3.173138    0.395667
     43          6           0        2.980533    2.102598    0.695824
     44          6           0        2.127857    0.959533    0.603244
     45          6           0        2.657374    4.615141    0.521609
     46          6           0        4.473976    2.120190    1.027343
     47          6           0        5.287805    2.260104   -0.246727
     48          6           0        6.749057    2.565944    0.022361
     49          8           0        7.490249    2.815605   -0.952242
     50          8           0        7.155736    2.563120    1.204820
     51          7           0        0.392524   -1.422220    0.682998
     52          7           0       -2.311195   -1.089399    0.147173
     53          7           0       -1.889324    1.643010   -0.384390
     54          7           0        0.818749    1.315536    0.277398
     55         26           0       -0.735671    0.118124    0.211960
     56          1           0       -2.614104   -1.194289    5.460501
     57          1           0       -1.633566   -0.050194    6.345182
     58          1           0       -3.257406    0.379406    5.863877
     59          1           0       -1.643811   -1.305175    2.967324
     60          1           0       -0.845035    2.763880    2.359791
     61          1           0        0.080271   -3.257980   -4.440846
     62          1           0        0.094253   -2.015042   -5.668843
     63          1           0        1.557109   -2.392243   -4.790868
     64          1           0       -0.118932   -2.365957   -1.838213
     65          1           0       -0.319469    1.732174   -2.671455
     66          1           0        3.621272   -0.448991    1.060585
     67          1           0       -1.432828   -4.242466    1.037944
     68          1           0       -5.045785    0.556158   -0.981046
     69          1           0       -0.039022    4.515368   -0.518278
     70          1           0        0.526475   -5.526125    0.571925
     71          1           0        2.159653   -5.457507    1.189248
     72          1           0        0.805182   -5.320142    2.284513
     73          1           0        3.645179   -4.301769    1.438093
     74          1           0        4.192268   -2.578813    1.846521
     75          1           0        5.400510   -3.726017    0.051942
     76          1           0        4.504190   -2.170421   -0.407877
     77          1           0       -4.661787   -4.797231   -0.512033
     78          1           0       -3.146086   -5.091526    0.305958
     79          1           0       -4.560390   -4.634746    1.224741
     80          1           0       -5.677991   -2.519990   -1.938403
     81          1           0       -6.857699   -1.413469    0.661440
     82          1           0       -7.772686   -1.932032   -0.864533
     83          1           0       -5.696987    4.122782   -1.567480
     84          1           0       -5.179180    3.402799   -0.509961
     85          1           0       -4.651642    3.703182   -2.365001
     86          1           0       -1.666594    5.620645   -1.203096
     87          1           0       -4.637172    5.535750   -1.927995
     88          1           0       -3.498367    6.997800   -1.943294
     89          1           0        3.710180    4.674988    0.340178
     90          1           0        2.137293    5.216486   -0.194491
     91          1           0        2.444630    4.971112    1.507978
     92          1           0        4.708531    1.160070    1.437286
     93          1           0        4.650106    3.005054    1.602577
     94          1           0        4.895156    3.114761   -0.756911
     95          1           0        5.267897    1.299752   -0.718136
     96          1           0        7.501935    2.226079   -1.709819
     97          1           0        3.132192   -5.643275   -1.821736
     98          1           0       -1.692688    2.464403    4.727458
     99          1           0        0.190561    0.503883   -4.827686
 ---------------------------------------------------------------------

 SCF Done:  E(UPBE1PBE) =  -3627.46139488     A.U. after   55 cycles

 Alpha virt. eigenvalues --    1.14761   1.14769   1.15376   1.15538   1.15762
 Alpha virt. eigenvalues --    1.15901   1.16350   1.16708   1.16886   1.16999
 Alpha virt. eigenvalues --    1.17462   1.17765   1.17900   1.18176   1.18560

  Beta  occ. eigenvalues -- -256.38778 -30.13241 -25.96643 -25.96460 -25.95557
  Beta  occ. eigenvalues --  -19.27322 -19.26328 -19.17780 -19.17353 -14.45187
  Beta  occ. eigenvalues --  -14.44522 -14.38590 -14.38034 -14.37095 -14.37019
  Beta  occ. eigenvalues --  -14.36712 -14.36539 -10.34986 -10.34929 -10.28510
  Beta  occ. eigenvalues --  -10.27777 -10.26262 -10.25469 -10.24954 -10.24685
  Beta  occ. eigenvalues --  -10.24441 -10.24093 -10.23550 -10.23509 -10.23306
  Beta  occ. eigenvalues --  -10.23176 -10.23121 -10.23074 -10.23055 -10.22930
  Beta  occ. eigenvalues --  -10.22812 -10.22770 -10.22742 -10.22166 -10.22023
  Beta  occ. eigenvalues --  -10.21776 -10.21726 -10.21396 -10.21075 -10.21040
  Beta  occ. eigenvalues --  -10.20897 -10.20819 -10.20815 -10.20762 -10.20756
  Beta  occ. eigenvalues --  -10.20722 -10.20699 -10.20670 -10.20144 -10.20140
  Beta  occ. eigenvalues --  -10.19969 -10.19738 -10.19012 -10.17037  -3.43808
  Beta  occ. eigenvalues --   -2.19993  -2.19637  -2.15933  -1.17729  -1.16982
  Beta  occ. eigenvalues --   -1.06410  -1.05845  -1.02656  -1.02355  -0.96785
  Beta  occ. eigenvalues --   -0.95774  -0.95612  -0.94689  -0.91357  -0.90843
  Beta  occ. eigenvalues --   -0.84264  -0.84157  -0.83495  -0.82856  -0.81891
  Beta  occ. eigenvalues --   -0.81479  -0.80709  -0.80133  -0.79336  -0.79025
  Beta  occ. eigenvalues --   -0.78342  -0.76919  -0.75847  -0.73756  -0.73180
  Beta  occ. eigenvalues --   -0.72759  -0.72404  -0.72161  -0.71933  -0.70833
  Beta  occ. eigenvalues --   -0.70268  -0.69627  -0.68456  -0.65991  -0.65444
  Beta  occ. eigenvalues --   -0.65250  -0.64667  -0.64252  -0.63929  -0.62279
  Beta  occ. eigenvalues --   -0.61620  -0.61324  -0.60983  -0.57930  -0.56788
  Beta  occ. eigenvalues --   -0.56436  -0.56109  -0.54899  -0.54286  -0.53992
  Beta  occ. eigenvalues --   -0.53598  -0.52783  -0.52346  -0.52040  -0.51490
  Beta  occ. eigenvalues --   -0.50847  -0.50682  -0.50501  -0.49575  -0.48803
  Beta  occ. eigenvalues --   -0.48259  -0.48232  -0.48038  -0.47995  -0.47851
  Beta  occ. eigenvalues --   -0.47670  -0.47426  -0.47327  -0.47256  -0.46291
  Beta  occ. eigenvalues --   -0.45342  -0.44801  -0.44411  -0.44239  -0.43725
  Beta  occ. eigenvalues --   -0.43568  -0.43468  -0.43392  -0.43285  -0.43021
  Beta  occ. eigenvalues --   -0.42874  -0.42769  -0.42598  -0.42540  -0.42496
  Beta  occ. eigenvalues --   -0.42351  -0.42313  -0.41940  -0.41905  -0.41190
  Beta  occ. eigenvalues --   -0.40390  -0.40333  -0.40038  -0.39794  -0.39638
  Beta  occ. eigenvalues --   -0.39130  -0.38747  -0.38546  -0.38365  -0.38134
  Beta  occ. eigenvalues --   -0.37944  -0.37684  -0.37490  -0.37213  -0.36829
  Beta  occ. eigenvalues --   -0.36799  -0.36311  -0.35802  -0.35677  -0.35044
  Beta  occ. eigenvalues --   -0.34588  -0.34372  -0.33936  -0.33574  -0.32928
  Beta  occ. eigenvalues --   -0.32619  -0.32479  -0.32339  -0.31546  -0.31372
  Beta  occ. eigenvalues --   -0.31103  -0.30088  -0.29837  -0.27535  -0.27487
  Beta  occ. eigenvalues --   -0.26397  -0.26248  -0.25759  -0.24647  -0.24213
  Beta  occ. eigenvalues --   -0.23959  -0.23724  -0.23150  -0.22549  -0.21626
  Beta  occ. eigenvalues --   -0.18511  -0.17724  -0.17232
  Beta virt. eigenvalues --   -0.07766  -0.07095  -0.03334  -0.02783  -0.01028
  Beta virt. eigenvalues --   -0.00367   0.00174   0.00643   0.01209   0.01418
  Beta virt. eigenvalues --    0.01890   0.02041   0.02414   0.02630   0.02865

 Mulliken charges and spin densities:
               1          2
     1  C   -0.383654   0.000903
     2  C    0.153067   0.002026
     3  N   -0.214874   0.003302
     4  C   -0.186273   0.003052
     5  C    0.031788   0.007974
     6  N    0.001375   0.033125
     7  C   -0.377110   0.001012
     8  C    0.146616   0.002690
     9  N   -0.216588   0.003339
    10  C   -0.170172   0.003520
    11  C    0.018617   0.006997
    12  N    0.000141   0.043201
    13  C   -0.469500  -0.119012
    14  C   -0.654335   0.198848
    15  C   -0.527675  -0.048277
    16  C   -0.649790   0.260160
    17  C    0.292964   0.164635
    18  C   -0.140063  -0.031849
    19  C    0.001732   0.115638
    20  C    0.186472  -0.024024
    21  C   -0.405030  -0.010428
    22  C   -0.255140  -0.000458
    23  C   -0.109861   0.001403
    24  C    0.275391  -0.000649
    25  O   -0.325855   0.000066
    26  O   -0.394123   0.000013
    27  C    0.316724  -0.041789
    28  C   -0.031052   0.064312
    29  C   -0.001211  -0.032936
    30  C    0.326730   0.088628
    31  C   -0.386525  -0.004537
    32  C   -0.317034   0.004491
    33  C   -0.241487  -0.001210
    34  C    0.347098   0.106537
    35  C   -0.383389   0.028296
    36  C    0.127183   0.109499
    37  C    0.150808  -0.047929
    38  C   -0.612999   0.005338
    39  C   -0.136969  -0.087223
    40  C   -0.322100   0.159689
    41  C    0.255807  -0.065320
    42  C   -0.052988   0.116245
    43  C    0.006996  -0.055272
    44  C    0.279450   0.143528
    45  C   -0.396263  -0.008224
    46  C   -0.353497   0.003420
    47  C   -0.248437  -0.002127
    48  C    0.298538   0.000058
    49  O   -0.317260  -0.000026
    50  O   -0.351019   0.000066
    51  N   -0.010266  -0.055743
    52  N   -0.017007  -0.001892
    53  N   -0.000705  -0.029804
    54  N    0.039076  -0.019114
    55  Fe  -0.207635   3.006186
    56  H    0.147097   0.000071
    57  H    0.139595   0.000030
    58  H    0.134021   0.000097
    59  H    0.159511   0.000542
    60  H    0.177135   0.000639
    61  H    0.137166   0.000042
    62  H    0.121555   0.000129
    63  H    0.162109   0.000018
    64  H    0.140488   0.000768
    65  H    0.176044   0.000849
    66  H    0.079756   0.004719
    67  H    0.111905  -0.011848
    68  H    0.181810   0.001227
    69  H    0.089877  -0.014450
    70  H    0.125309   0.005835
    71  H    0.122063   0.000253
    72  H    0.138867   0.005559
    73  H    0.108953  -0.000301
    74  H    0.122771  -0.000596
    75  H    0.109291   0.000645
    76  H    0.108868  -0.000389
    77  H    0.131674   0.000976
    78  H    0.120400   0.002253
    79  H    0.139012   0.001778
    80  H    0.122045  -0.001489
    81  H    0.126572  -0.000066
    82  H    0.122682  -0.000044
    83  H    0.247026   0.001206
    84  H    0.252318  -0.000847
    85  H    0.208841   0.001728
    86  H    0.095218   0.003272
    87  H    0.061257  -0.007387
    88  H    0.119636  -0.008366
    89  H    0.120272   0.000594
    90  H    0.132021   0.002305
    91  H    0.137860   0.006208
    92  H    0.111464  -0.000374
    93  H    0.145124  -0.000642
    94  H    0.131779  -0.000095
    95  H    0.135691   0.000715
    96  H    0.347740   0.000002
    97  H    0.341201   0.000014
    98  H    0.234868   0.002026
    99  H    0.232422   0.002039
 Sum of Mulliken charges =  -0.00000   4.00000

 Dipole moment (field-independent basis, Debye):
    X=              0.7540    Y=             -2.8743    Z=             -0.6445  Tot=              3.0407
 Quadrupole moment (field-independent basis, Debye-Ang):
   XX=           -359.6867   YY=           -301.9945   ZZ=           -281.1719
   XY=            -17.2508   XZ=            -40.8471   YZ=              8.1224

 Summary of Natural Population Analysis:

                                       Natural Population
                Natural  -----------------------------------------------
    Atom  No    Charge         Core      Valence    Rydberg      Total
 -----------------------------------------------------------------------
      C    1   -0.31841      0.99969     2.31564    0.00308     3.31841
      C    2    0.04993      0.99954     1.94146    0.00908     2.95007
      N    3   -0.24041      0.99969     2.73105    0.00968     3.74041
      C    4   -0.02856      0.99944     2.02006    0.00906     3.02856
      C    5    0.10918      0.99966     1.88056    0.01060     2.89082
      N    6   -0.15827      0.99973     2.63812    0.02042     3.65827
      C    7   -0.31870      0.99969     2.31573    0.00328     3.31870
      C    8    0.05312      0.99954     1.93808    0.00926     2.94688
      N    9   -0.23920      0.99969     2.72971    0.00980     3.73920
      C   10   -0.02778      0.99943     2.01940    0.00894     3.02778
      C   11    0.10767      0.99966     1.88208    0.01059     2.89233
      N   12   -0.15164      0.99972     2.63058    0.02134     3.65164
      C   13   -0.14917      0.99947     2.14119    0.00851     3.14917
      C   14   -0.09013      0.99947     2.08209    0.00857     3.09013
      C   15   -0.11632      0.99949     2.10831    0.00852     3.11632
      C   16   -0.07235      0.99950     2.06486    0.00799     3.07235
      C   17    0.12984      0.99949     1.86031    0.01037     2.87016
      C   18   -0.02502      0.99940     2.01600    0.00963     3.02502
      C   19    0.02895      0.99942     1.96294    0.00869     2.97105
      C   20    0.07908      0.99949     1.91113    0.01031     2.92092
      C   21   -0.32177      0.99970     2.31849    0.00358     3.32177
      C   22   -0.21023      0.99967     2.20328    0.00727     3.21023
      C   23   -0.24725      0.99964     2.23896    0.00865     3.24725
      C   24    0.38566      0.99977     1.59584    0.01873     2.61434
      O   25   -0.32454      0.99981     3.31125    0.01348     4.32454
      O   26   -0.31400      0.99989     3.30171    0.01239     4.31400
      C   27    0.07864      0.99951     1.91165    0.01020     2.92136
      C   28    0.02222      0.99942     1.97018    0.00817     2.97778
      C   29   -0.06175      0.99942     2.05109    0.01123     3.06175
      C   30    0.10843      0.99950     1.88144    0.01063     2.89157
      C   31   -0.31790      0.99970     2.31463    0.00357     3.31790
      C   32   -0.09585      0.99959     2.08635    0.00991     3.09585
      C   33   -0.18646      0.99968     2.18147    0.00531     3.18646
      C   34    0.09738      0.99949     1.89195    0.01118     2.90262
      C   35    0.05123      0.99927     1.93805    0.01145     2.94877
      C   36   -0.05572      0.99940     2.04649    0.00983     3.05572
      C   37    0.08843      0.99956     1.90179    0.01023     2.91157
      C   38   -0.63018      0.99957     2.59987    0.03074     3.63018
      C   39   -0.12152      0.99961     2.11320    0.00871     3.12152
      C   40   -0.15441      0.99970     2.14796    0.00675     3.15441
      C   41    0.06616      0.99953     1.92382    0.01048     2.93384
      C   42    0.02341      0.99942     1.96882    0.00835     2.97659
      C   43   -0.02948      0.99939     2.02059    0.00950     3.02948
      C   44    0.11821      0.99946     1.87180    0.01052     2.88179
      C   45   -0.31978      0.99970     2.31627    0.00381     3.31978
      C   46   -0.20695      0.99968     2.19889    0.00838     3.20695
      C   47   -0.26095      0.99964     2.25261    0.00871     3.26095
      C   48    0.38162      0.99975     1.60108    0.01755     2.61838
      O   49   -0.32886      0.99980     3.31376    0.01530     4.32886
      O   50   -0.28716      0.99989     3.27546    0.01181     4.28716
      N   51   -0.21889      0.99969     2.69743    0.02178     3.71889
      N   52   -0.20390      0.99969     2.68221    0.02201     3.70390
      N   53   -0.20883      0.99969     2.68707    0.02207     3.70883
      N   54   -0.20552      0.99967     2.68352    0.02233     3.70552
     Fe   55    1.66361      8.99478     2.31428    0.02733    11.33639
      H   56    0.11832      0.00000     0.38122    0.00046     0.38168
      H   57    0.10999      0.00000     0.38927    0.00074     0.39001
      H   58    0.10928      0.00000     0.38999    0.00072     0.39072
      H   59    0.11744      0.00000     0.38178    0.00078     0.38256
      H   60    0.11355      0.00000     0.38568    0.00077     0.38645
      H   61    0.11632      0.00000     0.38317    0.00052     0.38368
      H   62    0.10565      0.00000     0.39367    0.00069     0.39435
      H   63    0.11762      0.00000     0.38160    0.00077     0.38238
      H   64    0.11607      0.00000     0.38308    0.00085     0.38393
      H   65    0.11321      0.00000     0.38601    0.00078     0.38679
      H   66    0.10204      0.00000     0.39652    0.00144     0.39796
      H   67    0.10474      0.00000     0.39395    0.00131     0.39526
      H   68    0.12601      0.00000     0.37273    0.00126     0.37399
      H   69    0.10361      0.00000     0.39520    0.00119     0.39639
      H   70    0.11014      0.00000     0.38907    0.00079     0.38986
      H   71    0.10815      0.00000     0.39109    0.00076     0.39185
      H   72    0.11207      0.00000     0.38714    0.00080     0.38793
      H   73    0.11008      0.00000     0.38895    0.00097     0.38992
      H   74    0.11340      0.00000     0.38568    0.00093     0.38660
      H   75    0.11401      0.00000     0.38520    0.00080     0.38599
      H   76    0.12054      0.00000     0.37864    0.00082     0.37946
      H   77    0.11142      0.00000     0.38783    0.00075     0.38858
      H   78    0.10749      0.00000     0.39184    0.00067     0.39251
      H   79    0.11224      0.00000     0.38701    0.00074     0.38776
      H   80    0.10418      0.00000     0.39456    0.00126     0.39582
      H   81    0.09783      0.00000     0.40131    0.00086     0.40217
      H   82    0.09804      0.00000     0.40121    0.00075     0.40196
      H   83    0.19300      0.00000     0.30607    0.00094     0.30700
      H   84    0.21407      0.00000     0.28476    0.00117     0.28593
      H   85    0.21131      0.00000     0.28605    0.00264     0.28869
      H   86    0.10163      0.00000     0.39753    0.00085     0.39837
      H   87    0.08282      0.00000     0.41593    0.00125     0.41718
      H   88    0.09765      0.00000     0.40163    0.00072     0.40235
      H   89    0.10532      0.00000     0.39392    0.00075     0.39468
      H   90    0.10988      0.00000     0.38948    0.00064     0.39012
      H   91    0.11257      0.00000     0.38664    0.00079     0.38743
      H   92    0.11078      0.00000     0.38836    0.00086     0.38922
      H   93    0.11778      0.00000     0.38134    0.00088     0.38222
      H   94    0.11491      0.00000     0.38419    0.00090     0.38509
      H   95    0.11378      0.00000     0.38527    0.00095     0.38622
      H   96    0.25352      0.00000     0.24536    0.00112     0.24648
      H   97    0.25484      0.00000     0.24348    0.00168     0.24516
      H   98    0.20914      0.00000     0.29008    0.00078     0.29086
      H   99    0.20866      0.00000     0.29055    0.00079     0.29134
 =======================================================================
   * Total *    2.00000     62.97288   139.35659    0.67052   203.00000

 Normal termination of Gaussian 16 at Sat Oct 15 00:07:09 2022.
