 Gaussian 16, Revision A.03,
 Gaussian 16:  AM64L-G16RevA.03 25-Dec-2016

 ----------------------------------------------------------------------
 # PBE1PBE/def2TZVP empiricaldispersion=GD3BJ scf=maxcycle=999 geom=che
 ck pop=nbo
 ----------------------------------------------------------------------

 ----------
 1eue_III_D
 ----------
 Structure from the checkpoint file:  "1eue_III_D.chk"
 Charge =  1 Multiplicity = 2

                         Standard orientation:
 ---------------------------------------------------------------------
 Center     Atomic      Atomic             Coordinates (Angstroms)
 Number     Number       Type             X           Y           Z
 ---------------------------------------------------------------------
      1          6           0       -2.156571   -1.356066    5.434027
      2          6           0       -1.830045   -0.589672    4.193439
      3          7           0       -1.926706    0.782485    4.124473
      4          6           0       -1.441616   -1.008472    2.963848
      5          6           0       -1.607831    1.178085    2.902528
      6          7           0       -1.310003    0.109041    2.182302
      7          6           0        0.428016   -1.680378   -5.057389
      8          6           0       -0.105408   -0.823448   -3.952507
      9          7           0       -0.711598    0.388550   -4.181578
     10          6           0       -0.074633   -0.982207   -2.607050
     11          6           0       -1.033990    0.943230   -3.027673
     12          7           0       -0.660367    0.131175   -2.056446
     13          6           0        2.481324   -0.125900    0.745861
     14          6           0       -1.036117   -3.403080    0.141563
     15          6           0       -4.275878    0.103648   -0.595799
     16          6           0       -0.800886    3.389996    0.120736
     17          6           0        1.813296   -1.333693    0.605690
     18          6           0        2.435531   -2.602683    0.625444
     19          6           0        1.442428   -3.540603    0.477052
     20          6           0        0.203484   -2.827678    0.340823
     21          6           0        1.618297   -4.946531    0.452569
     22          6           0        3.956775   -2.874426    0.770256
     23          6           0        4.633638   -2.694509   -0.625890
     24          6           0        6.123662   -2.911819   -0.692559
     25          8           0        6.809922   -2.078987   -1.375657
     26          8           0        6.617680   -3.928228   -0.090941
     27          6           0       -2.197365   -2.707871   -0.078945
     28          6           0       -3.465669   -3.347054   -0.297117
     29          6           0       -4.405167   -2.410908   -0.506714
     30          6           0       -3.677876   -1.142531   -0.409884
     31          6           0       -3.671541   -4.853894   -0.295479
     32          6           0       -5.832063   -2.673305   -0.785213
     33          6           0       -6.808355   -2.101167    0.223154
     34          6           0       -3.621269    1.294190   -0.518387
     35          6           0       -4.240396    2.596111   -0.708726
     36          6           0       -3.288256    3.538610   -0.486293
     37          6           0       -2.055635    2.802905   -0.169849
     38          6           0       -5.696705    2.895793   -1.082248
     39          6           0       -3.469664    5.042937   -0.547961
     40          6           0       -2.842484    5.885049   -1.395107
     41          6           0        0.386354    2.713422    0.375052
     42          6           0        1.660042    3.373509    0.655674
     43          6           0        2.607608    2.390773    0.825359
     44          6           0        1.879467    1.125740    0.657300
     45          6           0        1.901137    4.875793    0.739793
     46          6           0        4.117161    2.576577    1.126102
     47          6           0        4.984958    2.434626   -0.153966
     48          6           0        6.412742    2.875850    0.060025
     49          8           0        7.126398    2.201502    0.847908
     50          8           0        6.797865    3.911225   -0.551998
     51          7           0        0.430898   -1.455484    0.388917
     52          7           0       -2.311609   -1.338492   -0.131531
     53          7           0       -2.260316    1.413168   -0.204219
     54          7           0        0.507541    1.324862    0.391909
     55         26           0       -0.905896   -0.006929    0.111097
     56          1           0        2.555666    5.086629    1.559574
     57          1           0        2.348351    5.216775   -0.170498
     58          1           0        0.968686    5.378845    0.889371
     59          1           0       -0.762580    4.458982    0.147211
     60          1           0       -1.830834    6.178251   -1.206700
     61          1           0       -3.356719    6.259732   -2.255383
     62          1           0       -4.159569    5.477063    0.145195
     63          1           0       -6.222589    3.242733   -0.217391
     64          1           0       -5.722368    3.649380   -1.841424
     65          1           0       -6.161613    2.004434   -1.448635
     66          1           0       -5.323027    0.125134   -0.814698
     67          1           0       -6.746459   -2.390527    1.251424
     68          1           0       -7.559468   -1.407903   -0.093256
     69          1           0       -6.154410   -3.229437   -1.640613
     70          1           0       -4.108003   -5.153231    0.634466
     71          1           0       -4.323395   -5.125688   -1.099291
     72          1           0       -2.728068   -5.342912   -0.420459
     73          1           0       -1.094785   -4.471299    0.160676
     74          1           0        0.772201   -5.403701   -0.016493
     75          1           0        2.503917   -5.185656   -0.098245
     76          1           0        1.711563   -5.311803    1.453957
     77          1           0        4.170602   -3.377951   -1.306628
     78          1           0        4.430645   -1.699943   -0.964317
     79          1           0        4.111560   -3.874308    1.118361
     80          1           0        4.380717   -2.181771    1.466963
     81          1           0        7.543929   -1.613437   -0.968106
     82          1           0        4.423524    1.838547    1.837687
     83          1           0        4.271326    3.549103    1.544820
     84          1           0        4.982713    1.409510   -0.460611
     85          1           0        4.552821    3.029077   -0.931646
     86          1           0        6.887359    2.136059    1.775366
     87          1           0        3.533863   -0.159071    0.935496
     88          1           0       -0.882000    0.788181   -5.082277
     89          1           0        0.329718   -1.817404   -2.074278
     90          1           0       -1.516151    1.890040   -2.901293
     91          1           0        0.377263   -2.709022   -4.767189
     92          1           0       -0.157515   -1.529531   -5.940168
     93          1           0        1.445687   -1.415271   -5.254781
     94          1           0       -1.593350    2.190318    2.556008
     95          1           0       -2.194918    1.383620    4.877267
     96          1           0       -1.270272   -2.020347    2.661110
     97          1           0       -1.922210   -0.761828    6.292430
     98          1           0       -3.199157   -1.596630    5.440621
     99          1           0       -1.582151   -2.258506    5.457336
 ---------------------------------------------------------------------

 SCF Done:  E(UPBE1PBE) =  -3627.32514770     A.U. after   88 cycles

 Alpha virt. eigenvalues --    1.03208   1.03851   1.03938   1.04282   1.04800
 Alpha virt. eigenvalues --    1.05214   1.05260   1.05537   1.05755   1.06147
 Alpha virt. eigenvalues --    1.06334   1.06652   1.07015   1.07279   1.07720

  Beta  occ. eigenvalues -- -256.50948 -30.27470 -26.10483 -26.10439 -26.09479
  Beta  occ. eigenvalues --  -19.33360 -19.32892 -19.25462 -19.25238 -14.55083
  Beta  occ. eigenvalues --  -14.54631 -14.50721 -14.49969 -14.49104 -14.48948
  Beta  occ. eigenvalues --  -14.48907 -14.48373 -10.42971 -10.42747 -10.38888
  Beta  occ. eigenvalues --  -10.38483 -10.36345 -10.36134 -10.35927 -10.35853
  Beta  occ. eigenvalues --  -10.35803 -10.35679 -10.35114 -10.34948 -10.34941
  Beta  occ. eigenvalues --  -10.34796 -10.33784 -10.33541 -10.33168 -10.33147
  Beta  occ. eigenvalues --  -10.33094 -10.32956 -10.32948 -10.32855 -10.32649
  Beta  occ. eigenvalues --  -10.32374 -10.32091 -10.32073 -10.32063 -10.31917
  Beta  occ. eigenvalues --  -10.31854 -10.31839 -10.31753 -10.31570 -10.31556
  Beta  occ. eigenvalues --  -10.31532 -10.31284 -10.31115 -10.30933 -10.30204
  Beta  occ. eigenvalues --  -10.30087 -10.29697 -10.29520 -10.29061  -3.59789
  Beta  occ. eigenvalues --   -2.35538  -2.34946  -2.34066  -1.23681  -1.22361
  Beta  occ. eigenvalues --   -1.17173  -1.16835  -1.09448  -1.08283  -1.08032
  Beta  occ. eigenvalues --   -1.06810  -1.06722  -1.05631  -1.01761  -1.01202
  Beta  occ. eigenvalues --   -0.93774  -0.92844  -0.92664  -0.92383  -0.91877
  Beta  occ. eigenvalues --   -0.91249  -0.91110  -0.90850  -0.90720  -0.88620
  Beta  occ. eigenvalues --   -0.87888  -0.86936  -0.85581  -0.84890  -0.82917
  Beta  occ. eigenvalues --   -0.82346  -0.81965  -0.81842  -0.80935  -0.80237
  Beta  occ. eigenvalues --   -0.78824  -0.78342  -0.78000  -0.75672  -0.75363
  Beta  occ. eigenvalues --   -0.75317  -0.74814  -0.74234  -0.72652  -0.72473
  Beta  occ. eigenvalues --   -0.72238  -0.71296  -0.70350  -0.68882  -0.67729
  Beta  occ. eigenvalues --   -0.66920  -0.66467  -0.65639  -0.64737  -0.64459
  Beta  occ. eigenvalues --   -0.63143  -0.62070  -0.61714  -0.61503  -0.60897
  Beta  occ. eigenvalues --   -0.59862  -0.58737  -0.58478  -0.58262  -0.58181
  Beta  occ. eigenvalues --   -0.58052  -0.57859  -0.57765  -0.57342  -0.57300
  Beta  occ. eigenvalues --   -0.56653  -0.56360  -0.55944  -0.55628  -0.55093
  Beta  occ. eigenvalues --   -0.54813  -0.54728  -0.54628  -0.54093  -0.53810
  Beta  occ. eigenvalues --   -0.53581  -0.53519  -0.53223  -0.53158  -0.52938
  Beta  occ. eigenvalues --   -0.52736  -0.52562  -0.52365  -0.52159  -0.52119
  Beta  occ. eigenvalues --   -0.51847  -0.51754  -0.51466  -0.51268  -0.51222
  Beta  occ. eigenvalues --   -0.50429  -0.50283  -0.50090  -0.50018  -0.49835
  Beta  occ. eigenvalues --   -0.49633  -0.49157  -0.48989  -0.48768  -0.48636
  Beta  occ. eigenvalues --   -0.48163  -0.48104  -0.47828  -0.47381  -0.47231
  Beta  occ. eigenvalues --   -0.47160  -0.46875  -0.46220  -0.45866  -0.45770
  Beta  occ. eigenvalues --   -0.45431  -0.45151  -0.44206  -0.43724  -0.43321
  Beta  occ. eigenvalues --   -0.42958  -0.42588  -0.42462  -0.42229  -0.41837
  Beta  occ. eigenvalues --   -0.40861  -0.40367  -0.39602  -0.39321  -0.38252
  Beta  occ. eigenvalues --   -0.37954  -0.36838  -0.35655  -0.35080  -0.34785
  Beta  occ. eigenvalues --   -0.34594  -0.34343  -0.34161  -0.33822  -0.32474
  Beta  occ. eigenvalues --   -0.30383  -0.29919  -0.29195  -0.28669
  Beta virt. eigenvalues --   -0.19581  -0.17558  -0.15414  -0.14907  -0.14077
  Beta virt. eigenvalues --   -0.13451  -0.10649  -0.10428  -0.08897  -0.08454
  Beta virt. eigenvalues --   -0.08098  -0.07416  -0.07047  -0.06111  -0.05903

 Mulliken charges and spin densities:
               1          2
     1  C   -0.362864  -0.000430
     2  C    0.141795  -0.000445
     3  N   -0.205801   0.001733
     4  C   -0.189787   0.001640
     5  C    0.030345   0.010472
     6  N    0.007763  -0.047768
     7  C   -0.359914  -0.000265
     8  C    0.099177  -0.000860
     9  N   -0.199768   0.001062
    10  C   -0.141338   0.001788
    11  C    0.038100   0.005433
    12  N   -0.084681  -0.037828
    13  C   -0.515709   0.001759
    14  C   -0.546391  -0.004234
    15  C   -0.471784  -0.026678
    16  C   -0.560268  -0.008773
    17  C    0.359491  -0.004263
    18  C   -0.037112   0.020324
    19  C    0.033823  -0.008238
    20  C    0.169703   0.005966
    21  C   -0.446248  -0.000144
    22  C   -0.346386  -0.001459
    23  C   -0.178174   0.000849
    24  C    0.277224   0.000143
    25  O   -0.354795   0.000015
    26  O   -0.357677   0.000013
    27  C    0.284879   0.007542
    28  C   -0.024875   0.002143
    29  C   -0.026409   0.010403
    30  C    0.287623   0.015633
    31  C   -0.361721  -0.000852
    32  C   -0.287559   0.006287
    33  C   -0.318861  -0.005084
    34  C    0.334611   0.024740
    35  C   -0.073915  -0.072840
    36  C    0.047879   0.150702
    37  C    0.161374  -0.013318
    38  C   -0.383180   0.004015
    39  C   -0.251287  -0.991338
    40  C   -0.281335   1.061306
    41  C    0.306541   0.013681
    42  C   -0.038438  -0.008979
    43  C   -0.037070   0.021119
    44  C    0.290015  -0.005070
    45  C   -0.396933  -0.000136
    46  C   -0.374740  -0.001615
    47  C   -0.188404   0.000801
    48  C    0.300779   0.000059
    49  O   -0.337951   0.000015
    50  O   -0.331010   0.000167
    51  N   -0.032252  -0.027371
    52  N    0.070141  -0.043735
    53  N    0.018484  -0.053143
    54  N    0.068252  -0.039379
    55  Fe  -0.255807   1.136107
    56  H    0.144907  -0.000289
    57  H    0.163561  -0.000312
    58  H    0.132292   0.000055
    59  H    0.110908  -0.001595
    60  H    0.143328  -0.094850
    61  H    0.156557  -0.093968
    62  H    0.150482   0.094277
    63  H    0.152504  -0.001982
    64  H    0.148835  -0.002390
    65  H    0.135764  -0.000849
    66  H    0.113280   0.001133
    67  H    0.158450   0.000381
    68  H    0.153282   0.000397
    69  H    0.166363   0.000364
    70  H    0.154570   0.000172
    71  H    0.142381  -0.000021
    72  H    0.126295   0.000001
    73  H    0.111601   0.000262
    74  H    0.129499  -0.000121
    75  H    0.155019  -0.000305
    76  H    0.162021  -0.000421
    77  H    0.136621  -0.000024
    78  H    0.132420  -0.000034
    79  H    0.161332   0.000157
    80  H    0.131125   0.000310
    81  H    0.362089   0.000028
    82  H    0.126079   0.000409
    83  H    0.143698   0.000120
    84  H    0.117209  -0.000021
    85  H    0.136773  -0.000025
    86  H    0.356693   0.000015
    87  H    0.124418  -0.000256
    88  H    0.247580  -0.000473
    89  H    0.158604  -0.000296
    90  H    0.181462   0.000144
    91  H    0.151873  -0.000011
    92  H    0.136474  -0.000018
    93  H    0.158152  -0.000027
    94  H    0.190872  -0.000690
    95  H    0.249249  -0.000527
    96  H    0.168425  -0.000381
    97  H    0.136995  -0.000070
    98  H    0.157721   0.000039
    99  H    0.154682   0.000019
 Sum of Mulliken charges =   1.00000   1.00000

 Dipole moment (field-independent basis, Debye):
    X=             -8.7074    Y=              1.6838    Z=              2.3218  Tot=              9.1676
 Quadrupole moment (field-independent basis, Debye-Ang):
   XX=           -295.5964   YY=           -289.3824   ZZ=           -237.6101
   XY=             -6.3427   XZ=              9.7560   YZ=             10.2669

 Summary of Natural Population Analysis:

                                       Natural Population
                Natural  -----------------------------------------------
    Atom  No    Charge         Core      Valence    Rydberg      Total
 -----------------------------------------------------------------------
      C    1   -0.32113      0.99969     2.31827    0.00317     3.32113
      C    2    0.05980      0.99955     1.93166    0.00898     2.94020
      N    3   -0.23345      0.99968     2.72380    0.00997     3.73345
      C    4   -0.03383      0.99944     2.02521    0.00918     3.03383
      C    5    0.10616      0.99966     1.88338    0.01080     2.89384
      N    6   -0.18986      0.99970     2.66670    0.02347     3.68986
      C    7   -0.32093      0.99969     2.31804    0.00320     3.32093
      C    8    0.05968      0.99955     1.93154    0.00923     2.94032
      N    9   -0.23447      0.99968     2.72475    0.01004     3.73447
      C   10   -0.03835      0.99944     2.02962    0.00929     3.03835
      C   11    0.10253      0.99967     1.88799    0.00982     2.89747
      N   12   -0.19640      0.99971     2.67297    0.02372     3.69640
      C   13   -0.11473      0.99948     2.10660    0.00864     3.11473
      C   14   -0.12012      0.99946     2.11249    0.00817     3.12012
      C   15   -0.12011      0.99946     2.11213    0.00852     3.12011
      C   16   -0.13032      0.99950     2.12237    0.00845     3.13032
      C   17    0.07378      0.99947     1.91685    0.00989     2.92622
      C   18    0.00078      0.99941     1.99063    0.00918     2.99922
      C   19   -0.01313      0.99950     2.00519    0.00844     3.01313
      C   20    0.07898      0.99951     1.91107    0.01045     2.92102
      C   21   -0.32253      0.99966     2.31536    0.00750     3.32253
      C   22   -0.20515      0.99967     2.19862    0.00686     3.20515
      C   23   -0.25141      0.99961     2.24335    0.00845     3.25141
      C   24    0.38018      0.99974     1.60327    0.01681     2.61982
      O   25   -0.33832      0.99982     3.32485    0.01365     4.33832
      O   26   -0.28822      0.99990     3.27746    0.01086     4.28822
      C   27    0.07826      0.99949     1.91176    0.01049     2.92174
      C   28    0.01441      0.99941     1.97817    0.00800     2.98559
      C   29   -0.04645      0.99935     2.03622    0.01088     3.04645
      C   30    0.10178      0.99951     1.88845    0.01026     2.89822
      C   31   -0.31796      0.99970     2.31217    0.00609     3.31796
      C   32   -0.10003      0.99969     2.09086    0.00948     3.10003
      C   33   -0.18454      0.99976     2.17877    0.00601     3.18454
      C   34    0.07977      0.99947     1.91008    0.01068     2.92023
      C   35   -0.02905      0.99942     2.02147    0.00816     3.02905
      C   36    0.00944      0.99934     1.98098    0.01024     2.99056
      C   37    0.07846      0.99955     1.91163    0.01036     2.92154
      C   38   -0.31699      0.99969     2.31323    0.00407     3.31699
      C   39   -0.52506      0.99962     2.51374    0.01169     3.52506
      C   40    0.30893      0.99961     1.68368    0.00777     2.69107
      C   41    0.08673      0.99951     1.90329    0.01046     2.91327
      C   42   -0.00714      0.99946     1.99973    0.00795     3.00714
      C   43    0.00214      0.99943     1.98917    0.00926     2.99786
      C   44    0.08130      0.99951     1.90945    0.00974     2.91870
      C   45   -0.31971      0.99969     2.31630    0.00373     3.31971
      C   46   -0.21342      0.99966     2.20682    0.00695     3.21342
      C   47   -0.25213      0.99963     2.24397    0.00854     3.25213
      C   48    0.37973      0.99973     1.60321    0.01732     2.62027
      O   49   -0.33769      0.99980     3.32293    0.01497     4.33769
      O   50   -0.27103      0.99990     3.25978    0.01135     4.27103
      N   51   -0.21590      0.99969     2.69411    0.02210     3.71590
      N   52   -0.20758      0.99966     2.68530    0.02262     3.70758
      N   53   -0.21988      0.99968     2.69688    0.02332     3.71988
      N   54   -0.20649      0.99967     2.68313    0.02369     3.70649
     Fe   55    0.75289      8.99456     3.22794    0.02462    12.24711
      H   56    0.11428      0.00000     0.38499    0.00073     0.38572
      H   57    0.11755      0.00000     0.38173    0.00072     0.38245
      H   58    0.10977      0.00000     0.38962    0.00061     0.39023
      H   59    0.11308      0.00000     0.38556    0.00136     0.38692
      H   60    0.05354      0.00000     0.44491    0.00154     0.44646
      H   61    0.06068      0.00000     0.43788    0.00144     0.43932
      H   62    0.14330      0.00000     0.35583    0.00087     0.35670
      H   63    0.11475      0.00000     0.38450    0.00075     0.38525
      H   64    0.11601      0.00000     0.38324    0.00074     0.38399
      H   65    0.11002      0.00000     0.38939    0.00059     0.38998
      H   66    0.11902      0.00000     0.37963    0.00136     0.38098
      H   67    0.10007      0.00000     0.39893    0.00100     0.39993
      H   68    0.09788      0.00000     0.40121    0.00091     0.40212
      H   69    0.11090      0.00000     0.38801    0.00109     0.38910
      H   70    0.11711      0.00000     0.38225    0.00064     0.38289
      H   71    0.11589      0.00000     0.38346    0.00064     0.38411
      H   72    0.10762      0.00000     0.39193    0.00046     0.39238
      H   73    0.11268      0.00000     0.38579    0.00153     0.38732
      H   74    0.11103      0.00000     0.38843    0.00054     0.38897
      H   75    0.11771      0.00000     0.38160    0.00069     0.38229
      H   76    0.11883      0.00000     0.38037    0.00080     0.38117
      H   77    0.12006      0.00000     0.37932    0.00063     0.37994
      H   78    0.10788      0.00000     0.39142    0.00070     0.39212
      H   79    0.12149      0.00000     0.37776    0.00076     0.37851
      H   80    0.10892      0.00000     0.39030    0.00078     0.39108
      H   81    0.26119      0.00000     0.23761    0.00120     0.23881
      H   82    0.10502      0.00000     0.39404    0.00094     0.39498
      H   83    0.11445      0.00000     0.38473    0.00081     0.38555
      H   84    0.10897      0.00000     0.39023    0.00080     0.39103
      H   85    0.12004      0.00000     0.37928    0.00068     0.37996
      H   86    0.25669      0.00000     0.24233    0.00097     0.24331
      H   87    0.10912      0.00000     0.38954    0.00134     0.39088
      H   88    0.21250      0.00000     0.28670    0.00080     0.28750
      H   89    0.11874      0.00000     0.38034    0.00092     0.38126
      H   90    0.11418      0.00000     0.38495    0.00087     0.38582
      H   91    0.11959      0.00000     0.37992    0.00049     0.38041
      H   92    0.11211      0.00000     0.38727    0.00062     0.38789
      H   93    0.11690      0.00000     0.38245    0.00064     0.38310
      H   94    0.11640      0.00000     0.38283    0.00078     0.38360
      H   95    0.21307      0.00000     0.28618    0.00076     0.28693
      H   96    0.11902      0.00000     0.38022    0.00076     0.38098
      H   97    0.11235      0.00000     0.38703    0.00062     0.38765
      H   98    0.11693      0.00000     0.38243    0.00064     0.38307
      H   99    0.12040      0.00000     0.37912    0.00048     0.37960
 =======================================================================
   * Total *    1.00000     62.97282   140.38261    0.64457   204.00000

 Normal termination of Gaussian 16 at Wed Feb  8 21:32:10 2023.
