 Gaussian 16, Revision A.03,
 Gaussian 16:  ES64L-G16RevA.03 25-Dec-2016

 ----------------------------------------------------------------------
 # PBE1PBE/def2TZVP empiricaldispersion=GD3BJ scf=maxcycle=999 geom=che
 ck pop=nbo
 ----------------------------------------------------------------------

 ----------
 1f1c_III_H
 ----------
 Structure from the checkpoint file:  "1f1c_III_H.chk"
 Charge =  1 Multiplicity = 6

                         Standard orientation:
 ---------------------------------------------------------------------
 Center     Atomic      Atomic             Coordinates (Angstroms)
 Number     Number       Type             X           Y           Z
 ---------------------------------------------------------------------
      1          6           0        2.551255   -2.130370    4.876773
      2          6           0        1.650938   -1.485267    3.874582
      3          7           0        0.364289   -1.092193    4.176306
      4          6           0        1.816836   -1.238250    2.552357
      5          6           0       -0.223007   -0.640455    3.082174
      6          7           0        0.636336   -0.718250    2.075670
      7          6           0        0.636726    3.418152   -4.485266
      8          6           0        0.779179    2.192340   -3.624389
      9          7           0        1.458397    1.062916   -4.035916
     10          6           0        0.327648    1.917668   -2.377018
     11          6           0        1.414251    0.148794   -3.078539
     12          7           0        0.735400    0.637792   -2.053542
     13         26           0        0.768103   -0.039259    0.029596
     14          6           0       -2.628643   -0.047628   -0.028444
     15          6           0        0.751890   -3.469574   -0.678998
     16          6           0        4.167631   -0.117307   -0.154649
     17          6           0        0.794094    3.137647    1.186437
     18          7           0       -0.619882   -1.417130   -0.349205
     19          6           0       -1.977192   -1.241080   -0.345085
     20          6           0       -2.629237   -2.501911   -0.577782
     21          6           0       -1.702544   -3.443020   -0.757571
     22          6           0       -0.457756   -2.784941   -0.572247
     23          6           0       -1.879632   -4.862494   -1.272410
     24          6           0       -4.100290   -2.736725   -0.653503
     25          6           0       -4.570678   -2.957052    0.760961
     26          6           0       -6.001751   -3.409627    0.806000
     27          8           0       -6.632078   -3.475479   -0.266631
     28          8           0       -6.496317   -3.697389    1.909630
     29          7           0        2.141990   -1.448090   -0.356183
     30          6           0        1.964567   -2.830640   -0.598880
     31          6           0        3.196240   -3.478808   -0.904116
     32          6           0        4.138460   -2.514393   -0.891824
     33          6           0        3.503401   -1.279904   -0.488136
     34          6           0        3.434235   -4.955848   -1.170757
     35          6           0        5.475266   -2.692701   -1.247479
     36          6           0        5.851373   -3.068074   -2.551233
     37          7           0        2.162224    1.218732    0.462113
     38          6           0        3.529361    1.026803    0.349277
     39          6           0        4.250373    2.178849    0.773326
     40          6           0        3.328497    3.132189    1.096083
     41          6           0        2.016096    2.498478    0.942057
     42          6           0        5.765875    2.302459    0.916179
     43          6           0        3.631381    4.413453    1.626621
     44          6           0        4.424838    5.354822    0.903478
     45          7           0       -0.618909    1.289306    0.425140
     46          6           0       -0.441577    2.585368    0.854214
     47          6           0       -1.685963    3.258268    1.007297
     48          6           0       -2.638506    2.367261    0.666619
     49          6           0       -1.981758    1.132045    0.332494
     50          6           0       -1.906983    4.642727    1.658487
     51          6           0       -4.144146    2.629521    0.557890
     52          6           0       -4.544383    3.157954   -0.818751
     53          6           0       -6.051420    3.347530   -0.966532
     54          8           0       -6.795814    2.350228   -0.972750
     55          8           0       -6.498346    4.506635   -1.072354
     56          1           0        1.603364    3.735732   -4.816405
     57          1           0        0.026485    3.189106   -5.333820
     58          1           0        0.179028    4.201319   -3.917761
     59          1           0       -0.242692    2.574373   -1.753840
     60          1           0        1.913095    0.952268   -4.919662
     61          1           0        1.855079   -0.825013   -3.126176
     62          1           0       -1.225882   -0.272821    3.019025
     63          1           0        2.705084   -1.415627    1.982748
     64          1           0       -0.058236   -1.141275    5.081328
     65          1           0        2.743954   -3.141456    4.584418
     66          1           0        3.474222   -1.591308    4.926202
     67          1           0        2.080526   -2.120463    5.837614
     68          1           0       -3.954962   -3.701333    1.221221
     69          1           0       -4.477342   -2.041084    1.306113
     70          1           0       -4.303521   -3.603481   -1.247078
     71          1           0       -4.587347   -1.881444   -1.073229
     72          1           0       -6.676400   -4.305375   -0.747158
     73          1           0       -6.576146    1.583957   -0.437798
     74          1           0       -4.209686    2.466515   -1.563593
     75          1           0       -4.061545    4.099109   -0.979981
     76          1           0       -4.669041    1.715885    0.744046
     77          1           0       -4.424881    3.347902    1.299521
     78          1           0       -3.697960   -0.038443   -0.065547
     79          1           0        0.734743   -4.528947   -0.828445
     80          1           0       -1.811233   -5.549515   -0.454961
     81          1           0       -2.838613   -4.956098   -1.737697
     82          1           0       -1.113685   -5.080902   -1.986918
     83          1           0       -1.073467    4.878602    2.286590
     84          1           0       -1.999120    5.385789    0.894112
     85          1           0       -2.801349    4.622083    2.245500
     86          1           0        0.810049    4.100578    1.652708
     87          1           0        5.228875   -0.086174   -0.287660
     88          1           0        3.546776   -5.472592   -0.240591
     89          1           0        2.600277   -5.360727   -1.705068
     90          1           0        4.323224   -5.074211   -1.754357
     91          1           0        6.173205    1.361528    1.222172
     92          1           0        6.190772    2.586260   -0.023938
     93          1           0        5.995433    3.046192    1.650390
     94          1           0        6.102901   -2.194364   -3.115382
     95          1           0        6.699486   -3.718773   -2.504375
     96          1           0        5.037576   -3.576371   -3.024803
     97          1           0        6.235197   -2.540144   -0.509827
     98          1           0        5.253860    4.850600    0.452498
     99          1           0        3.828977    5.813080    0.141999
    100          1           0        4.786287    6.106240    1.574020
    101          1           0        3.255811    4.680426    2.592319
 ---------------------------------------------------------------------

 SCF Done:  E(UPBE1PBE) =  -3628.65344177     A.U. after   54 cycles

 Alpha virt. eigenvalues --    1.05997   1.06288   1.06808   1.07090   1.07455
 Alpha virt. eigenvalues --    1.07536   1.08147   1.08361   1.08623   1.08915
 Alpha virt. eigenvalues --    1.09347   1.09654   1.10264   1.10491   1.10844

  Beta  occ. eigenvalues -- -256.51070 -30.25631 -26.09067 -26.08834 -26.07897
  Beta  occ. eigenvalues --  -19.33415 -19.32622 -19.25162 -19.23869 -14.54151
  Beta  occ. eigenvalues --  -14.54108 -14.49008 -14.48669 -14.48559 -14.48388
  Beta  occ. eigenvalues --  -14.48183 -14.47991 -10.42225 -10.41617 -10.37982
  Beta  occ. eigenvalues --  -10.37774 -10.35698 -10.35493 -10.35491 -10.35477
  Beta  occ. eigenvalues --  -10.35376 -10.35270 -10.35260 -10.35186 -10.35148
  Beta  occ. eigenvalues --  -10.34988 -10.32953 -10.32696 -10.32572 -10.32373
  Beta  occ. eigenvalues --  -10.32341 -10.32320 -10.32285 -10.32081 -10.32013
  Beta  occ. eigenvalues --  -10.31940 -10.31856 -10.31845 -10.31580 -10.31503
  Beta  occ. eigenvalues --  -10.31409 -10.31166 -10.31005 -10.30994 -10.30680
  Beta  occ. eigenvalues --  -10.30675 -10.30559 -10.30367 -10.30344 -10.30064
  Beta  occ. eigenvalues --  -10.30055 -10.29568 -10.28888 -10.28488  -3.56041
  Beta  occ. eigenvalues --   -2.32339  -2.31853  -2.27984  -1.24147  -1.24034
  Beta  occ. eigenvalues --   -1.15855  -1.15841  -1.10058  -1.09002  -1.08968
  Beta  occ. eigenvalues --   -1.07889  -1.07767  -1.06734  -1.00242  -1.00189
  Beta  occ. eigenvalues --   -0.94175  -0.93857  -0.93345  -0.93172  -0.92445
  Beta  occ. eigenvalues --   -0.91382  -0.91086  -0.90370  -0.90336  -0.88735
  Beta  occ. eigenvalues --   -0.87970  -0.87031  -0.86209  -0.85675  -0.83616
  Beta  occ. eigenvalues --   -0.82060  -0.81784  -0.81532  -0.81420  -0.81298
  Beta  occ. eigenvalues --   -0.79508  -0.78134  -0.77421  -0.76063  -0.75944
  Beta  occ. eigenvalues --   -0.74519  -0.74363  -0.74154  -0.73987  -0.72122
  Beta  occ. eigenvalues --   -0.71723  -0.71675  -0.71390  -0.69303  -0.68317
  Beta  occ. eigenvalues --   -0.66080  -0.65993  -0.65774  -0.64959  -0.64246
  Beta  occ. eigenvalues --   -0.63862  -0.62709  -0.62477  -0.62049  -0.61527
  Beta  occ. eigenvalues --   -0.60908  -0.60041  -0.58879  -0.58577  -0.57977
  Beta  occ. eigenvalues --   -0.57817  -0.57530  -0.57209  -0.57112  -0.57048
  Beta  occ. eigenvalues --   -0.56645  -0.55873  -0.55795  -0.55487  -0.54795
  Beta  occ. eigenvalues --   -0.54561  -0.54300  -0.54243  -0.53885  -0.53656
  Beta  occ. eigenvalues --   -0.53531  -0.53313  -0.53079  -0.52950  -0.52551
  Beta  occ. eigenvalues --   -0.52383  -0.52302  -0.52026  -0.51987  -0.51842
  Beta  occ. eigenvalues --   -0.51691  -0.51642  -0.51451  -0.51055  -0.50935
  Beta  occ. eigenvalues --   -0.50768  -0.50680  -0.50336  -0.50236  -0.49965
  Beta  occ. eigenvalues --   -0.49856  -0.49646  -0.49136  -0.48985  -0.48722
  Beta  occ. eigenvalues --   -0.48570  -0.48184  -0.48025  -0.47948  -0.47511
  Beta  occ. eigenvalues --   -0.47289  -0.47164  -0.46681  -0.46311  -0.46020
  Beta  occ. eigenvalues --   -0.45476  -0.44820  -0.44305  -0.44031  -0.43771
  Beta  occ. eigenvalues --   -0.43359  -0.43080  -0.42785  -0.42756  -0.42165
  Beta  occ. eigenvalues --   -0.41767  -0.40865  -0.40659  -0.39954  -0.38971
  Beta  occ. eigenvalues --   -0.38487  -0.38047  -0.36299  -0.35476  -0.35399
  Beta  occ. eigenvalues --   -0.35008  -0.34686  -0.34031  -0.33792  -0.33455
  Beta  occ. eigenvalues --   -0.33222  -0.29805  -0.29154
  Beta virt. eigenvalues --   -0.19268  -0.19057  -0.14951  -0.14711  -0.13426
  Beta virt. eigenvalues --   -0.12586  -0.11152  -0.10027  -0.08885  -0.08395
  Beta virt. eigenvalues --   -0.07957  -0.07289  -0.06835  -0.06454  -0.05827

 Mulliken charges and spin densities:
               1          2
     1  C   -0.344217   0.000922
     2  C    0.086901   0.002349
     3  N   -0.200709   0.003456
     4  C   -0.120163   0.002481
     5  C    0.022565   0.003540
     6  N   -0.082663   0.051180
     7  C   -0.370787   0.000928
     8  C    0.126756   0.003088
     9  N   -0.201165   0.003030
    10  C   -0.152245   0.001285
    11  C    0.030815   0.005513
    12  N   -0.114922   0.043304
    13  Fe  -0.183331   2.962712
    14  C   -0.460035  -0.022468
    15  C   -0.497814   0.035742
    16  C   -0.497886   0.026072
    17  C   -0.472503  -0.029848
    18  N    0.061004  -0.053051
    19  C    0.138189   0.029862
    20  C    0.144112  -0.005875
    21  C   -0.147666   0.024471
    22  C    0.316398  -0.010986
    23  C   -0.392860  -0.001790
    24  C   -0.297114  -0.000949
    25  C   -0.220039   0.000341
    26  C    0.273195  -0.000005
    27  O   -0.346187  -0.000001
    28  O   -0.318409   0.000074
    29  N   -0.087066  -0.019535
    30  C    0.266263  -0.022180
    31  C   -0.086468   0.117282
    32  C    0.093539  -0.130059
    33  C    0.131698   0.042433
    34  C   -0.350730  -0.004315
    35  C   -0.269634   0.958262
    36  C   -0.332275  -0.063035
    37  N    0.076656  -0.053195
    38  C    0.291463  -0.018997
    39  C   -0.057653   0.178875
    40  C    0.058529  -0.151781
    41  C    0.176132   0.067885
    42  C   -0.427632  -0.013011
    43  C   -0.278890   0.924571
    44  C   -0.307311  -0.067115
    45  N    0.023345  -0.060854
    46  C    0.252192   0.039301
    47  C   -0.082716   0.013570
    48  C    0.103682   0.019352
    49  C    0.180038   0.034122
    50  C   -0.380480  -0.001223
    51  C   -0.355979  -0.002762
    52  C   -0.225144   0.001228
    53  C    0.301732   0.000205
    54  O   -0.283644   0.000013
    55  O   -0.343358   0.000216
    56  H    0.144880   0.000147
    57  H    0.153321   0.000054
    58  H    0.148182  -0.000005
    59  H    0.150865   0.000636
    60  H    0.243476   0.001542
    61  H    0.173116   0.000553
    62  H    0.167022   0.000605
    63  H    0.155953   0.000447
    64  H    0.243785   0.001912
    65  H    0.153725  -0.000009
    66  H    0.153744  -0.000023
    67  H    0.128303   0.000089
    68  H    0.147759  -0.000031
    69  H    0.128371  -0.000026
    70  H    0.086084  -0.000154
    71  H    0.128174   0.000014
    72  H    0.362605   0.000002
    73  H    0.338358   0.000003
    74  H    0.137416  -0.000080
    75  H    0.130831  -0.000055
    76  H    0.105961   0.000253
    77  H    0.137024   0.000255
    78  H    0.099902   0.000647
    79  H    0.155278  -0.001939
    80  H    0.158049   0.001086
    81  H    0.132473   0.000188
    82  H    0.143144   0.000660
    83  H    0.136461   0.000190
    84  H    0.158988   0.000866
    85  H    0.144615   0.000270
    86  H    0.125341   0.006277
    87  H    0.146628   0.002374
    88  H    0.156176   0.004339
    89  H    0.133292   0.000677
    90  H    0.147243  -0.000261
    91  H    0.141981   0.001919
    92  H    0.159053   0.005733
    93  H    0.166609   0.005068
    94  H    0.141014   0.066418
    95  H    0.141194   0.020573
    96  H    0.130527   0.012612
    97  H    0.139378  -0.048435
    98  H    0.138094   0.032976
    99  H    0.139235   0.059607
   100  H    0.137511   0.004682
   101  H    0.143350  -0.047283
 Sum of Mulliken charges =   1.00000   5.00000

 Dipole moment (field-independent basis, Debye):
    X=             10.7119    Y=             -4.0308    Z=             -1.4271  Tot=             11.5338
 Quadrupole moment (field-independent basis, Debye-Ang):
   XX=           -302.4875   YY=           -273.8524   ZZ=           -254.9495
   XY=             28.1473   XZ=              0.1211   YZ=             16.0739

 Summary of Natural Population Analysis:

                                       Natural Population
                Natural  -----------------------------------------------
    Atom  No    Charge         Core      Valence    Rydberg      Total
 -----------------------------------------------------------------------
      C    1   -0.32044      0.99969     2.31756    0.00319     3.32044
      C    2    0.05945      0.99954     1.93193    0.00907     2.94055
      N    3   -0.23283      0.99968     2.72307    0.01007     3.73283
      C    4   -0.03737      0.99943     2.02947    0.00846     3.03737
      C    5    0.09745      0.99966     1.89185    0.01104     2.90255
      N    6   -0.15419      0.99973     2.63334    0.02112     3.65419
      C    7   -0.32018      0.99969     2.31743    0.00306     3.32018
      C    8    0.06107      0.99954     1.93056    0.00883     2.93893
      N    9   -0.23580      0.99968     2.72636    0.00976     3.73580
      C   10   -0.03746      0.99943     2.02866    0.00937     3.03746
      C   11    0.10291      0.99966     1.88655    0.01087     2.89709
      N   12   -0.16287      0.99973     2.64368    0.01946     3.66287
     Fe   13    1.66572      8.99490     2.31236    0.02701    11.33428
      C   14   -0.12458      0.99950     2.11644    0.00863     3.12458
      C   15   -0.09740      0.99947     2.08972    0.00821     3.09740
      C   16   -0.11065      0.99949     2.10307    0.00809     3.11065
      C   17   -0.12571      0.99950     2.11835    0.00785     3.12571
      N   18   -0.20825      0.99968     2.68570    0.02287     3.70825
      C   19    0.09437      0.99951     1.89558    0.01054     2.90563
      C   20   -0.00710      0.99940     1.99792    0.00978     3.00710
      C   21   -0.00115      0.99935     1.99328    0.00853     3.00115
      C   22    0.08281      0.99948     1.90723    0.01047     2.91719
      C   23   -0.31895      0.99970     2.31571    0.00354     3.31895
      C   24   -0.21386      0.99967     2.20659    0.00760     3.21386
      C   25   -0.25422      0.99963     2.24599    0.00860     3.25422
      C   26    0.38112      0.99974     1.60099    0.01814     2.61888
      O   27   -0.34382      0.99979     3.32931    0.01472     4.34382
      O   28   -0.27204      0.99989     3.26029    0.01186     4.27204
      N   29   -0.21758      0.99970     2.69639    0.02149     3.71758
      C   30    0.07033      0.99946     1.91995    0.01025     2.92967
      C   31    0.05775      0.99938     1.93447    0.00839     2.94225
      C   32   -0.09406      0.99945     2.08442    0.01020     3.09406
      C   33    0.11021      0.99951     1.88002    0.01027     2.88979
      C   34   -0.32135      0.99970     2.31568    0.00598     3.32135
      C   35    0.38562      0.99962     1.60689    0.00788     2.61438
      C   36   -0.35662      0.99969     2.34999    0.00694     3.35662
      N   37   -0.21168      0.99965     2.69062    0.02141     3.71168
      C   38    0.07630      0.99949     1.91390    0.01031     2.92370
      C   39    0.08110      0.99941     1.91136    0.00813     2.91890
      C   40   -0.10037      0.99946     2.09088    0.01002     3.10037
      C   41    0.13249      0.99953     1.85782    0.01016     2.86751
      C   42   -0.32646      0.99970     2.32316    0.00360     3.32646
      C   43    0.38126      0.99964     1.61162    0.00748     2.61874
      C   44   -0.35736      0.99970     2.35099    0.00666     3.35736
      N   45   -0.22399      0.99967     2.70184    0.02248     3.72399
      C   46    0.09275      0.99949     1.89716    0.01061     2.90725
      C   47   -0.00077      0.99936     1.99289    0.00852     3.00077
      C   48    0.00110      0.99940     1.99002    0.00949     2.99890
      C   49    0.09007      0.99951     1.89984    0.01058     2.90993
      C   50   -0.31676      0.99969     2.31349    0.00357     3.31676
      C   51   -0.20993      0.99966     2.20348    0.00679     3.20993
      C   52   -0.25172      0.99963     2.24361    0.00848     3.25172
      C   53    0.37814      0.99976     1.60437    0.01774     2.62186
      O   54   -0.31635      0.99980     3.30070    0.01585     4.31635
      O   55   -0.27996      0.99989     3.26795    0.01212     4.27996
      H   56    0.11325      0.00000     0.38610    0.00065     0.38675
      H   57    0.11493      0.00000     0.38441    0.00066     0.38507
      H   58    0.11958      0.00000     0.37997    0.00045     0.38042
      H   59    0.11630      0.00000     0.38287    0.00084     0.38370
      H   60    0.21131      0.00000     0.28794    0.00075     0.28869
      H   61    0.11159      0.00000     0.38764    0.00078     0.38841
      H   62    0.11092      0.00000     0.38837    0.00071     0.38908
      H   63    0.11833      0.00000     0.38084    0.00084     0.38167
      H   64    0.21208      0.00000     0.28717    0.00075     0.28792
      H   65    0.11797      0.00000     0.38144    0.00059     0.38203
      H   66    0.11845      0.00000     0.38098    0.00057     0.38155
      H   67    0.11108      0.00000     0.38835    0.00056     0.38892
      H   68    0.12141      0.00000     0.37798    0.00061     0.37859
      H   69    0.11798      0.00000     0.38138    0.00064     0.38202
      H   70    0.10735      0.00000     0.39173    0.00092     0.39265
      H   71    0.10908      0.00000     0.38996    0.00097     0.39092
      H   72    0.26126      0.00000     0.23758    0.00117     0.23874
      H   73    0.24914      0.00000     0.24993    0.00092     0.25086
      H   74    0.10917      0.00000     0.39010    0.00073     0.39083
      H   75    0.11972      0.00000     0.37956    0.00073     0.38028
      H   76    0.09747      0.00000     0.40155    0.00098     0.40253
      H   77    0.11606      0.00000     0.38305    0.00088     0.38394
      H   78    0.10790      0.00000     0.39059    0.00152     0.39210
      H   79    0.11402      0.00000     0.38477    0.00121     0.38598
      H   80    0.11540      0.00000     0.38390    0.00070     0.38460
      H   81    0.11110      0.00000     0.38812    0.00077     0.38890
      H   82    0.11400      0.00000     0.38532    0.00067     0.38600
      H   83    0.11123      0.00000     0.38818    0.00059     0.38877
      H   84    0.11646      0.00000     0.38285    0.00069     0.38354
      H   85    0.11444      0.00000     0.38484    0.00072     0.38556
      H   86    0.11610      0.00000     0.38269    0.00121     0.38390
      H   87    0.11651      0.00000     0.38236    0.00113     0.38349
      H   88    0.11903      0.00000     0.38035    0.00062     0.38097
      H   89    0.11153      0.00000     0.38795    0.00053     0.38847
      H   90    0.11590      0.00000     0.38352    0.00058     0.38410
      H   91    0.11381      0.00000     0.38552    0.00067     0.38619
      H   92    0.11712      0.00000     0.38221    0.00067     0.38288
      H   93    0.11793      0.00000     0.38145    0.00062     0.38207
      H   94    0.14802      0.00000     0.35153    0.00046     0.35198
      H   95    0.12636      0.00000     0.37316    0.00048     0.37364
      H   96    0.11425      0.00000     0.38512    0.00064     0.38575
      H   97    0.08403      0.00000     0.41513    0.00084     0.41597
      H   98    0.12597      0.00000     0.37343    0.00060     0.37403
      H   99    0.14459      0.00000     0.35496    0.00046     0.35541
      H  100    0.11705      0.00000     0.38249    0.00046     0.38295
      H  101    0.08462      0.00000     0.41456    0.00081     0.41538
 =======================================================================
   * Total *    3.00000     62.97313   139.39638    0.63049   203.00000

 Normal termination of Gaussian 16 at Sun Apr  9 12:53:49 2023.
