 Gaussian 16, Revision A.03,
 Gaussian 16:  ES64L-G16RevA.03 25-Dec-2016

 ----------------------------------------------------------------------
 # PBE1PBE/def2TZVP empiricaldispersion=GD3BJ scf=maxcycle=999 geom=che
 ck pop=nbo
 ----------------------------------------------------------------------

 ---------
 1f1c_II_Q
 ---------
 Structure from the checkpoint file:  "1f1c_II_Q.chk"
 Charge =  0 Multiplicity = 5

                         Standard orientation:
 ---------------------------------------------------------------------
 Center     Atomic      Atomic             Coordinates (Angstroms)
 Number     Number       Type             X           Y           Z
 ---------------------------------------------------------------------
      1          6           0        2.551255   -2.130370    4.876773
      2          6           0        1.650938   -1.485267    3.874582
      3          7           0        0.364289   -1.092193    4.176306
      4          6           0        1.816836   -1.238250    2.552357
      5          6           0       -0.223007   -0.640455    3.082174
      6          7           0        0.636336   -0.718250    2.075670
      7          6           0        0.636726    3.418152   -4.485266
      8          6           0        0.779179    2.192340   -3.624389
      9          7           0        1.458397    1.062916   -4.035916
     10          6           0        0.327648    1.917668   -2.377018
     11          6           0        1.414251    0.148794   -3.078539
     12          7           0        0.735400    0.637792   -2.053542
     13         26           0        0.768103   -0.039259    0.029596
     14          6           0       -2.628643   -0.047628   -0.028444
     15          6           0        0.751890   -3.469574   -0.678998
     16          6           0        4.167631   -0.117307   -0.154649
     17          6           0        0.794094    3.137647    1.186437
     18          7           0       -0.619882   -1.417130   -0.349205
     19          6           0       -1.977192   -1.241080   -0.345085
     20          6           0       -2.629237   -2.501911   -0.577782
     21          6           0       -1.702544   -3.443020   -0.757571
     22          6           0       -0.457756   -2.784941   -0.572247
     23          6           0       -1.879632   -4.862494   -1.272410
     24          6           0       -4.100290   -2.736725   -0.653503
     25          6           0       -4.570678   -2.957052    0.760961
     26          6           0       -6.001751   -3.409627    0.806000
     27          8           0       -6.632078   -3.475479   -0.266631
     28          8           0       -6.496317   -3.697389    1.909630
     29          7           0        2.141990   -1.448090   -0.356183
     30          6           0        1.964567   -2.830640   -0.598880
     31          6           0        3.196240   -3.478808   -0.904116
     32          6           0        4.138460   -2.514393   -0.891824
     33          6           0        3.503401   -1.279904   -0.488136
     34          6           0        3.434235   -4.955848   -1.170757
     35          6           0        5.475266   -2.692701   -1.247479
     36          6           0        5.851373   -3.068074   -2.551233
     37          7           0        2.162224    1.218732    0.462113
     38          6           0        3.529361    1.026803    0.349277
     39          6           0        4.250373    2.178849    0.773326
     40          6           0        3.328497    3.132189    1.096083
     41          6           0        2.016096    2.498478    0.942057
     42          6           0        5.765875    2.302459    0.916179
     43          6           0        3.631381    4.413453    1.626621
     44          6           0        4.424838    5.354822    0.903478
     45          7           0       -0.618909    1.289306    0.425140
     46          6           0       -0.441577    2.585368    0.854214
     47          6           0       -1.685963    3.258268    1.007297
     48          6           0       -2.638506    2.367261    0.666619
     49          6           0       -1.981758    1.132045    0.332494
     50          6           0       -1.906983    4.642727    1.658487
     51          6           0       -4.144146    2.629521    0.557890
     52          6           0       -4.544383    3.157954   -0.818751
     53          6           0       -6.051420    3.347530   -0.966532
     54          8           0       -6.795814    2.350228   -0.972750
     55          8           0       -6.498346    4.506635   -1.072354
     56          1           0        1.603364    3.735732   -4.816405
     57          1           0        0.026485    3.189106   -5.333820
     58          1           0        0.179028    4.201319   -3.917761
     59          1           0       -0.242692    2.574373   -1.753840
     60          1           0        1.913095    0.952268   -4.919662
     61          1           0        1.855079   -0.825013   -3.126176
     62          1           0       -1.225882   -0.272821    3.019025
     63          1           0        2.705084   -1.415627    1.982748
     64          1           0       -0.058236   -1.141275    5.081328
     65          1           0        2.743954   -3.141456    4.584418
     66          1           0        3.474222   -1.591308    4.926202
     67          1           0        2.080526   -2.120463    5.837614
     68          1           0       -3.954962   -3.701333    1.221221
     69          1           0       -4.477342   -2.041084    1.306113
     70          1           0       -4.303521   -3.603481   -1.247078
     71          1           0       -4.587347   -1.881444   -1.073229
     72          1           0       -6.676400   -4.305375   -0.747158
     73          1           0       -6.576146    1.583957   -0.437798
     74          1           0       -4.209686    2.466515   -1.563593
     75          1           0       -4.061545    4.099109   -0.979981
     76          1           0       -4.669041    1.715885    0.744046
     77          1           0       -4.424881    3.347902    1.299521
     78          1           0       -3.697960   -0.038443   -0.065547
     79          1           0        0.734743   -4.528947   -0.828445
     80          1           0       -1.811233   -5.549515   -0.454961
     81          1           0       -2.838613   -4.956098   -1.737697
     82          1           0       -1.113685   -5.080902   -1.986918
     83          1           0       -1.073467    4.878602    2.286590
     84          1           0       -1.999120    5.385789    0.894112
     85          1           0       -2.801349    4.622083    2.245500
     86          1           0        0.810049    4.100578    1.652708
     87          1           0        5.228875   -0.086174   -0.287660
     88          1           0        3.546776   -5.472592   -0.240591
     89          1           0        2.600277   -5.360727   -1.705068
     90          1           0        4.323224   -5.074211   -1.754357
     91          1           0        6.173205    1.361528    1.222172
     92          1           0        6.190772    2.586260   -0.023938
     93          1           0        5.995433    3.046192    1.650390
     94          1           0        6.102901   -2.194364   -3.115382
     95          1           0        6.699486   -3.718773   -2.504375
     96          1           0        5.037576   -3.576371   -3.024803
     97          1           0        6.235197   -2.540144   -0.509827
     98          1           0        5.253860    4.850600    0.452498
     99          1           0        3.828977    5.813080    0.141999
    100          1           0        4.786287    6.106240    1.574020
    101          1           0        3.255811    4.680426    2.592319
 ---------------------------------------------------------------------

 SCF Done:  E(UPBE1PBE) =  -3628.81511037     A.U. after   61 cycles

 Alpha virt. eigenvalues --    1.16000   1.16183   1.16337   1.16839   1.17423
 Alpha virt. eigenvalues --    1.17637   1.17979   1.18278   1.18382   1.18670
 Alpha virt. eigenvalues --    1.19299   1.19501   1.19996   1.20393   1.20744

  Beta  occ. eigenvalues -- -256.32838 -30.07438 -25.91174 -25.90723 -25.89212
  Beta  occ. eigenvalues --  -19.26391 -19.25670 -19.18092 -19.16821 -14.44312
  Beta  occ. eigenvalues --  -14.44091 -14.37149 -14.36814 -14.36778 -14.36627
  Beta  occ. eigenvalues --  -14.36446 -14.36327 -10.34993 -10.34399 -10.27572
  Beta  occ. eigenvalues --  -10.27154 -10.25693 -10.25215 -10.24155 -10.23924
  Beta  occ. eigenvalues --  -10.23742 -10.23620 -10.23551 -10.23443 -10.23380
  Beta  occ. eigenvalues --  -10.23314 -10.23297 -10.22835 -10.22803 -10.22517
  Beta  occ. eigenvalues --  -10.22503 -10.22428 -10.22271 -10.22066 -10.21675
  Beta  occ. eigenvalues --  -10.21667 -10.21371 -10.21327 -10.21152 -10.21122
  Beta  occ. eigenvalues --  -10.21075 -10.20922 -10.20918 -10.20817 -10.20803
  Beta  occ. eigenvalues --  -10.20755 -10.20652 -10.20538 -10.20498 -10.20483
  Beta  occ. eigenvalues --  -10.20418 -10.20038 -10.19766 -10.19580  -3.39144
  Beta  occ. eigenvalues --   -2.16056  -2.15442  -2.10828  -1.17158  -1.16988
  Beta  occ. eigenvalues --   -1.05745  -1.05578  -1.03038  -1.01992  -0.97282
  Beta  occ. eigenvalues --   -0.96271  -0.96079  -0.95106  -0.89871  -0.89707
  Beta  occ. eigenvalues --   -0.84571  -0.83582  -0.83151  -0.82653  -0.81880
  Beta  occ. eigenvalues --   -0.80937  -0.80847  -0.80548  -0.80128  -0.78855
  Beta  occ. eigenvalues --   -0.78196  -0.77295  -0.76280  -0.74481  -0.73612
  Beta  occ. eigenvalues --   -0.72431  -0.72253  -0.72031  -0.71864  -0.71355
  Beta  occ. eigenvalues --   -0.69729  -0.69393  -0.69008  -0.66798  -0.66317
  Beta  occ. eigenvalues --   -0.64848  -0.64799  -0.64034  -0.63934  -0.61888
  Beta  occ. eigenvalues --   -0.61724  -0.61495  -0.61067  -0.58374  -0.56954
  Beta  occ. eigenvalues --   -0.56081  -0.55836  -0.55641  -0.54839  -0.54076
  Beta  occ. eigenvalues --   -0.53658  -0.53271  -0.53050  -0.52010  -0.51767
  Beta  occ. eigenvalues --   -0.51141  -0.50461  -0.49304  -0.48983  -0.48361
  Beta  occ. eigenvalues --   -0.48296  -0.48141  -0.47670  -0.47601  -0.47368
  Beta  occ. eigenvalues --   -0.47326  -0.47192  -0.46215  -0.45744  -0.45423
  Beta  occ. eigenvalues --   -0.44955  -0.44696  -0.44593  -0.44510  -0.44241
  Beta  occ. eigenvalues --   -0.43752  -0.43445  -0.43309  -0.43220  -0.43070
  Beta  occ. eigenvalues --   -0.42951  -0.42825  -0.42725  -0.42673  -0.42549
  Beta  occ. eigenvalues --   -0.42510  -0.42153  -0.41976  -0.41824  -0.41323
  Beta  occ. eigenvalues --   -0.41220  -0.41039  -0.40619  -0.40502  -0.40099
  Beta  occ. eigenvalues --   -0.39785  -0.39587  -0.39533  -0.39109  -0.38949
  Beta  occ. eigenvalues --   -0.38770  -0.38252  -0.38145  -0.37821  -0.37719
  Beta  occ. eigenvalues --   -0.37210  -0.36886  -0.36681  -0.36346  -0.36205
  Beta  occ. eigenvalues --   -0.35763  -0.34828  -0.34733  -0.34353  -0.34057
  Beta  occ. eigenvalues --   -0.33631  -0.32446  -0.32011  -0.31902  -0.31608
  Beta  occ. eigenvalues --   -0.31467  -0.31357  -0.30666  -0.30060  -0.29088
  Beta  occ. eigenvalues --   -0.28045  -0.27518  -0.27196  -0.26655  -0.24560
  Beta  occ. eigenvalues --   -0.24413  -0.24044  -0.23794  -0.23529  -0.22877
  Beta  occ. eigenvalues --   -0.20129  -0.18669  -0.18463  -0.13406
  Beta virt. eigenvalues --   -0.07409  -0.05594  -0.03986  -0.03008  -0.01773
  Beta virt. eigenvalues --   -0.00288   0.00075   0.00777   0.01429   0.02226
  Beta virt. eigenvalues --    0.02302   0.02622   0.03065   0.03295   0.04217

 Mulliken charges and spin densities:
               1          2
     1  C   -0.355681   0.000633
     2  C    0.100010   0.004836
     3  N   -0.214188  -0.000705
     4  C   -0.123800   0.002863
     5  C    0.013943  -0.009038
     6  N   -0.074886   0.042271
     7  C   -0.384538   0.000803
     8  C    0.138615   0.001922
     9  N   -0.214323   0.000976
    10  C   -0.150453   0.000385
    11  C    0.024485   0.004015
    12  N   -0.105448   0.027252
    13  Fe  -0.177788   2.371218
    14  C   -0.459536   0.032663
    15  C   -0.530200  -0.052180
    16  C   -0.502017   0.064838
    17  C   -0.506619  -0.108124
    18  N    0.038259  -0.024904
    19  C    0.114437  -0.071209
    20  C    0.145962   0.039880
    21  C   -0.161937  -0.048700
    22  C    0.318301   0.023141
    23  C   -0.409795   0.003891
    24  C   -0.298282  -0.002628
    25  C   -0.217622   0.000931
    26  C    0.272711   0.000401
    27  O   -0.348358  -0.000024
    28  O   -0.334181   0.000051
    29  N   -0.105359  -0.002553
    30  C    0.262105   0.009505
    31  C   -0.089825   0.064897
    32  C    0.098917  -0.114798
    33  C    0.111360  -0.037989
    34  C   -0.367441  -0.000118
    35  C   -0.284344   0.981360
    36  C   -0.317753  -0.065677
    37  N    0.050865  -0.027650
    38  C    0.271790  -0.114894
    39  C   -0.055329   0.218796
    40  C    0.049425  -0.238283
    41  C    0.172134   0.091151
    42  C   -0.441105  -0.014757
    43  C   -0.298741   0.930823
    44  C   -0.292382  -0.069418
    45  N    0.002041  -0.033986
    46  C    0.257805   0.061395
    47  C   -0.097781  -0.060829
    48  C    0.109739   0.060097
    49  C    0.157713  -0.065202
    50  C   -0.397776   0.004218
    51  C   -0.372482  -0.005037
    52  C   -0.214863   0.001960
    53  C    0.298877   0.000504
    54  O   -0.292776   0.000010
    55  O   -0.361199   0.000241
    56  H    0.132716   0.000048
    57  H    0.137918   0.000029
    58  H    0.145776   0.000009
    59  H    0.143029   0.000705
    60  H    0.225097   0.002257
    61  H    0.164494   0.000677
    62  H    0.153762   0.001474
    63  H    0.149565   0.001221
    64  H    0.224296   0.002887
    65  H    0.144567   0.000015
    66  H    0.147000  -0.000005
    67  H    0.113349   0.000044
    68  H    0.144330  -0.000053
    69  H    0.130278   0.000084
    70  H    0.071400   0.000415
    71  H    0.119443   0.000563
    72  H    0.356034   0.000047
    73  H    0.341539   0.000027
    74  H    0.138681  -0.000144
    75  H    0.123273  -0.000086
    76  H    0.098866   0.000573
    77  H    0.124941   0.000715
    78  H    0.074485  -0.001731
    79  H    0.130212   0.002789
    80  H    0.142802  -0.001988
    81  H    0.115153  -0.000546
    82  H    0.135076  -0.002075
    83  H    0.129641  -0.001174
    84  H    0.143293  -0.001849
    85  H    0.127664  -0.000838
    86  H    0.100724   0.009547
    87  H    0.120692   0.000797
    88  H    0.139100   0.001808
    89  H    0.124329  -0.001505
    90  H    0.131363  -0.001038
    91  H    0.133216   0.002559
    92  H    0.142822   0.006773
    93  H    0.151990   0.006355
    94  H    0.128616   0.067719
    95  H    0.119421   0.019715
    96  H    0.126511   0.012147
    97  H    0.118144  -0.049405
    98  H    0.124987   0.030979
    99  H    0.126762   0.058929
   100  H    0.113358   0.003085
   101  H    0.118595  -0.051776
 Sum of Mulliken charges =  -0.00000   4.00000

 Dipole moment (field-independent basis, Debye):
    X=              6.8773    Y=             -4.4720    Z=             -1.7782  Tot=              8.3939
 Quadrupole moment (field-independent basis, Debye-Ang):
   XX=           -366.7474   YY=           -330.4277   ZZ=           -282.4807
   XY=             26.5754   XZ=              0.3845   YZ=             11.0008

 Summary of Natural Population Analysis:

                                       Natural Population
                Natural  -----------------------------------------------
    Atom  No    Charge         Core      Valence    Rydberg      Total
 -----------------------------------------------------------------------
      C    1   -0.31873      0.99969     2.31580    0.00324     3.31873
      C    2    0.04842      0.99954     1.94235    0.00968     2.95158
      N    3   -0.24132      0.99968     2.73135    0.01029     3.74132
      C    4   -0.03665      0.99944     2.02805    0.00916     3.03665
      C    5    0.08519      0.99967     1.90475    0.01040     2.91481
      N    6   -0.16023      0.99974     2.63701    0.02349     3.66023
      C    7   -0.31875      0.99970     2.31600    0.00305     3.31875
      C    8    0.04903      0.99954     1.94206    0.00938     2.95097
      N    9   -0.24255      0.99968     2.73267    0.01020     3.74255
      C   10   -0.03439      0.99944     2.02537    0.00958     3.03439
      C   11    0.09775      0.99967     1.89149    0.01108     2.90225
      N   12   -0.16756      0.99974     2.64601    0.02181     3.66756
     Fe   13    1.30627      8.99463     2.67393    0.02517    11.69373
      C   14   -0.10435      0.99950     2.09607    0.00878     3.10435
      C   15   -0.15293      0.99947     2.14439    0.00907     3.15293
      C   16   -0.09482      0.99949     2.08705    0.00829     3.09482
      C   17   -0.17552      0.99950     2.16761    0.00841     3.17552
      N   18   -0.18818      0.99968     2.66683    0.02166     3.68818
      C   19    0.02696      0.99952     1.96232    0.01120     2.97304
      C   20    0.00465      0.99940     1.98590    0.01005     2.99535
      C   21   -0.05265      0.99934     2.04437    0.00893     3.05265
      C   22    0.09634      0.99949     1.89366    0.01051     2.90366
      C   23   -0.31518      0.99970     2.31184    0.00363     3.31518
      C   24   -0.21320      0.99968     2.20577    0.00775     3.21320
      C   25   -0.25509      0.99963     2.24668    0.00878     3.25509
      C   26    0.38369      0.99974     1.59822    0.01835     2.61631
      O   27   -0.34534      0.99979     3.33078    0.01477     4.34534
      O   28   -0.28105      0.99989     3.26933    0.01182     4.28105
      N   29   -0.20078      0.99971     2.68084    0.02023     3.70078
      C   30    0.08387      0.99947     1.90629    0.01037     2.91613
      C   31    0.01581      0.99938     1.97600    0.00881     2.98419
      C   32   -0.08546      0.99945     2.07538    0.01064     3.08546
      C   33    0.05294      0.99951     1.93688    0.01067     2.94706
      C   34   -0.31779      0.99970     2.31446    0.00363     3.31779
      C   35    0.38374      0.99962     1.60837    0.00827     2.61626
      C   36   -0.35572      0.99969     2.34915    0.00688     3.35572
      N   37   -0.19196      0.99966     2.67210    0.02021     3.69196
      C   38    0.01045      0.99950     1.97920    0.01086     2.98955
      C   39    0.09196      0.99941     1.90005    0.00858     2.90804
      C   40   -0.15032      0.99947     2.14033    0.01053     3.15032
      C   41    0.14204      0.99954     1.84818    0.01024     2.85796
      C   42   -0.32687      0.99970     2.32354    0.00364     3.32687
      C   43    0.35701      0.99964     1.63530    0.00805     2.64299
      C   44   -0.35504      0.99970     2.34873    0.00661     3.35504
      N   45   -0.20536      0.99968     2.68455    0.02113     3.70536
      C   46    0.10211      0.99950     1.88769    0.01070     2.89789
      C   47   -0.05291      0.99935     2.04471    0.00884     3.05291
      C   48    0.01071      0.99939     1.98016    0.00974     2.98929
      C   49    0.02513      0.99951     1.96436    0.01099     2.97487
      C   50   -0.31400      0.99970     2.31059    0.00371     3.31400
      C   51   -0.20892      0.99967     2.20237    0.00688     3.20892
      C   52   -0.25196      0.99963     2.24397    0.00835     3.25196
      C   53    0.38071      0.99976     1.60158    0.01795     2.61929
      O   54   -0.32023      0.99980     3.30483    0.01560     4.32023
      O   55   -0.28959      0.99989     3.27763    0.01207     4.28959
      H   56    0.10863      0.00000     0.39065    0.00073     0.39137
      H   57    0.10922      0.00000     0.39004    0.00074     0.39078
      H   58    0.11763      0.00000     0.38191    0.00046     0.38237
      H   59    0.11552      0.00000     0.38362    0.00086     0.38448
      H   60    0.20539      0.00000     0.29381    0.00079     0.29461
      H   61    0.10990      0.00000     0.38933    0.00077     0.39010
      H   62    0.10827      0.00000     0.39087    0.00086     0.39173
      H   63    0.11829      0.00000     0.38085    0.00086     0.38171
      H   64    0.20565      0.00000     0.29349    0.00086     0.29435
      H   65    0.11407      0.00000     0.38528    0.00065     0.38593
      H   66    0.11510      0.00000     0.38429    0.00062     0.38490
      H   67    0.10598      0.00000     0.39341    0.00061     0.39402
      H   68    0.12171      0.00000     0.37764    0.00064     0.37829
      H   69    0.12011      0.00000     0.37921    0.00068     0.37989
      H   70    0.10251      0.00000     0.39652    0.00097     0.39749
      H   71    0.10665      0.00000     0.39231    0.00104     0.39335
      H   72    0.25938      0.00000     0.23937    0.00125     0.24062
      H   73    0.25047      0.00000     0.24864    0.00089     0.24953
      H   74    0.11074      0.00000     0.38850    0.00076     0.38926
      H   75    0.11847      0.00000     0.38080    0.00073     0.38153
      H   76    0.09401      0.00000     0.40457    0.00141     0.40599
      H   77    0.11159      0.00000     0.38751    0.00090     0.38841
      H   78    0.09928      0.00000     0.39948    0.00125     0.40072
      H   79    0.10780      0.00000     0.39092    0.00128     0.39220
      H   80    0.10774      0.00000     0.39138    0.00088     0.39226
      H   81    0.10471      0.00000     0.39443    0.00086     0.39529
      H   82    0.10996      0.00000     0.38916    0.00088     0.39004
      H   83    0.10869      0.00000     0.39063    0.00068     0.39131
      H   84    0.10878      0.00000     0.39040    0.00082     0.39122
      H   85    0.10775      0.00000     0.39145    0.00079     0.39225
      H   86    0.11012      0.00000     0.38848    0.00141     0.38988
      H   87    0.10853      0.00000     0.39027    0.00121     0.39147
      H   88    0.11140      0.00000     0.38775    0.00084     0.38860
      H   89    0.10712      0.00000     0.39206    0.00082     0.39288
      H   90    0.11001      0.00000     0.38923    0.00076     0.38999
      H   91    0.11096      0.00000     0.38832    0.00072     0.38904
      H   92    0.11227      0.00000     0.38698    0.00075     0.38773
      H   93    0.11341      0.00000     0.38591    0.00068     0.38659
      H   94    0.14381      0.00000     0.35569    0.00050     0.35619
      H   95    0.11911      0.00000     0.38034    0.00055     0.38089
      H   96    0.11362      0.00000     0.38570    0.00069     0.38638
      H   97    0.07906      0.00000     0.42000    0.00094     0.42094
      H   98    0.12233      0.00000     0.37694    0.00073     0.37767
      H   99    0.13870      0.00000     0.36078    0.00052     0.36130
      H  100    0.10875      0.00000     0.39066    0.00059     0.39125
      H  101    0.07745      0.00000     0.42153    0.00102     0.42255
 =======================================================================
   * Total *    2.00000     62.97302   140.38602    0.64096   204.00000

 Normal termination of Gaussian 16 at Wed Apr  5 02:44:50 2023.
