 Gaussian 16, Revision A.03,
 Gaussian 16:  ES64L-G16RevA.03 25-Dec-2016

 ----------------------------------------------------------------------
 # PBE1PBE/def2TZVP empiricaldispersion=GD3BJ int=(grid=ultrafine) geom
 =check pop=nbo
 ----------------------------------------------------------------------

 ----------
 1f1f_III_H
 ----------
 Structure from the checkpoint file:  "1f1f_III_H.chk"
 Charge =  1 Multiplicity = 6

                         Standard orientation:
 ---------------------------------------------------------------------
 Center     Atomic      Atomic             Coordinates (Angstroms)
 Number     Number       Type             X           Y           Z
 ---------------------------------------------------------------------
      1          6           0        2.701855   -1.695484    4.863536
      2          6           0        1.841605   -1.105113    3.786270
      3          7           0        0.532127   -0.721753    3.992615
      4          6           0        2.098814   -0.862301    2.479286
      5          6           0        0.020964   -0.272272    2.862315
      6          7           0        0.950442   -0.346928    1.927392
      7          6           0       -1.218963    2.618193   -2.791159
      8          6           0       -0.521306    1.394438   -3.357544
      9         16           0        0.691682    0.589624   -2.294062
     10          6           0        1.380636   -0.622806   -3.449338
     11         26           0        0.813578   -0.087145   -0.068126
     12          6           0       -2.584210   -0.337665   -0.082105
     13          6           0        1.136760   -3.430197   -0.631943
     14          6           0        4.250752    0.340541   -0.452109
     15          6           0        0.551758    3.183354    0.961997
     16          7           0       -0.458964   -1.582635   -0.260392
     17          6           0       -1.852135   -1.523186   -0.235405
     18          6           0       -2.472282   -2.848731   -0.530313
     19          6           0       -1.400338   -3.687912   -0.832274
     20          6           0       -0.162566   -2.906124   -0.573445
     21          6           0       -1.472236   -5.151343   -1.338077
     22          6           0       -3.975651   -3.214350   -0.344269
     23          6           0       -4.387828   -2.902604    1.092872
     24          6           0       -5.849598   -3.198924    1.400721
     25          8           0       -6.739810   -2.601525    0.763286
     26          8           0       -6.113064   -4.023929    2.300219
     27          7           0        2.373185   -1.295387   -0.370248
     28          6           0        2.323377   -2.688321   -0.530376
     29          6           0        3.661276   -3.227764   -0.776210
     30          6           0        4.523482   -2.156172   -0.814045
     31          6           0        3.727448   -0.955904   -0.542272
     32          6           0        4.061290   -4.702738   -0.884498
     33          6           0        5.897786   -2.224098   -1.081887
     34          6           0        6.341315   -2.343687   -2.398855
     35          7           0        2.109330    1.446176    0.153637
     36          6           0        3.489903    1.473508   -0.128891
     37          6           0        4.079909    2.769200    0.265993
     38          6           0        3.071063    3.478317    0.909414
     39          6           0        1.842803    2.691446    0.735866
     40          6           0        5.466110    3.326042   -0.074466
     41          6           0        3.201769    4.724640    1.573897
     42          6           0        3.396796    5.877769    0.857779
     43          7           0       -0.685273    1.146923    0.340273
     44          6           0       -0.621009    2.489242    0.734844
     45          6           0       -1.940199    3.075384    0.765978
     46          6           0       -2.811471    2.078727    0.439215
     47          6           0       -2.039134    0.898400    0.196110
     48          6           0       -2.308575    4.539859    1.007868
     49          6           0       -4.322616    2.151177    0.257007
     50          6           0       -4.665191    2.926687   -1.003109
     51          6           0       -6.124000    2.792947   -1.396537
     52          8           0       -6.524433    1.703436   -1.880522
     53          8           0       -6.872871    3.778529   -1.212121
     54          1           0        3.130949   -2.611725    4.515282
     55          1           0        3.482903   -1.008037    5.113095
     56          1           0        2.105483   -1.887909    5.730838
     57          1           0        3.023648   -1.038747    1.970907
     58          1           0       -0.976376    0.090723    2.726492
     59          1           0       -2.030592    2.894310   -3.431407
     60          1           0       -1.595113    2.394359   -1.814783
     61          1           0       -0.522863    3.428361   -2.728122
     62          1           0        0.035777    1.752585   -4.197955
     63          1           0       -1.295815    0.669775   -3.498607
     64          1           0        2.282956   -1.197221   -3.421687
     65          1           0        2.097706    0.162985   -3.564411
     66          1           0        1.158803   -1.266623   -2.623995
     67          1           0       -3.647242   -0.396100   -0.189107
     68          1           0        1.231547   -4.487572   -0.765632
     69          1           0        5.295289    0.474591   -0.641515
     70          1           0        0.466164    4.179782    1.342398
     71          1           0       -0.802820   -5.977574   -1.219235
     72          1           0       -0.647107   -4.799696   -1.921521
     73          1           0       -1.578317   -5.319010   -0.286633
     74          1           0       -4.055360   -4.274230   -0.467556
     75          1           0       -4.535743   -2.558459   -0.977518
     76          1           0       -4.276039   -1.844307    1.204282
     77          1           0       -3.820268   -3.568331    1.708975
     78          1           0        4.744334   -4.828211   -1.698504
     79          1           0        4.530444   -5.012811    0.025804
     80          1           0        3.188460   -5.297305   -1.056420
     81          1           0        6.344141   -1.340463   -0.675861
     82          1           0        5.644020   -1.865795   -3.054827
     83          1           0        7.299572   -1.877673   -2.496191
     84          1           0        5.498482    3.593739   -1.109932
     85          1           0        5.659564    4.191711    0.523943
     86          1           0        6.208346    2.581552    0.124830
     87          1           0        2.316148    4.863603    2.158075
     88          1           0        2.928107    5.786536   -0.099773
     89          1           0        2.968656    6.703151    1.387250
     90          1           0       -3.242245    4.756062    0.532037
     91          1           0       -2.394823    4.716915    2.059587
     92          1           0       -1.546389    5.171213    0.601218
     93          1           0       -4.702674    2.720722    1.079244
     94          1           0       -4.659971    1.148003    0.099739
     95          1           0       -4.102826    2.472886   -1.792229
     96          1           0       -4.516074    3.959185   -0.765174
     97          1           0        0.045535   -0.776223    4.864545
     98          1           0       -6.883497   -4.591118    2.220662
     99          1           0       -7.023992    1.697129   -2.700279
    100          1           0        4.445797    6.043359    0.727103
    101          1           0        4.023537    4.633865    2.253130
    102          1           0        6.285724   -3.060772   -0.539319
    103          1           0        6.420603   -3.379335   -2.655850
 ---------------------------------------------------------------------

 SCF Done:  E(UPBE1PBE) =  -3881.23902883     A.U. after   33 cycles

 Alpha virt. eigenvalues --    0.95912   0.96154   0.96580   0.96865   0.97153
 Alpha virt. eigenvalues --    0.97478   0.97863   0.98022   0.98101   0.98265
 Alpha virt. eigenvalues --    0.98833   0.99055   0.99249   0.99504   1.00266

  Beta  occ. eigenvalues -- -256.54324 -89.15186 -30.27552 -26.10813 -26.10708
  Beta  occ. eigenvalues --  -26.10662 -19.33356 -19.32662 -19.24466 -19.24443
  Beta  occ. eigenvalues --  -14.55299 -14.49577 -14.48756 -14.48645 -14.48053
  Beta  occ. eigenvalues --  -14.47728 -10.42158 -10.41932 -10.39033 -10.37920
  Beta  occ. eigenvalues --  -10.37008 -10.36938 -10.36759 -10.36463 -10.36413
  Beta  occ. eigenvalues --  -10.36294 -10.36105 -10.36021 -10.35796 -10.34077
  Beta  occ. eigenvalues --  -10.34059 -10.33874 -10.33403 -10.33331 -10.33225
  Beta  occ. eigenvalues --  -10.33099 -10.33067 -10.32897 -10.32727 -10.32553
  Beta  occ. eigenvalues --  -10.32263 -10.31923 -10.31892 -10.31835 -10.31689
  Beta  occ. eigenvalues --  -10.31093 -10.31042 -10.30790 -10.30616 -10.30523
  Beta  occ. eigenvalues --  -10.30132 -10.29948 -10.29084 -10.28623 -10.28543
  Beta  occ. eigenvalues --  -10.27929 -10.27075  -8.12931  -6.06742  -6.06262
  Beta  occ. eigenvalues --   -6.05609  -3.56869  -2.31579  -2.31138  -2.31053
  Beta  occ. eigenvalues --   -1.24105  -1.23144  -1.17328  -1.09311  -1.09005
  Beta  occ. eigenvalues --   -1.08384  -1.07355  -1.06758  -1.05531  -1.01785
  Beta  occ. eigenvalues --   -0.96547  -0.95380  -0.94827  -0.94526  -0.93994
  Beta  occ. eigenvalues --   -0.93388  -0.91740  -0.91523  -0.91402  -0.89753
  Beta  occ. eigenvalues --   -0.89241  -0.88671  -0.88072  -0.87635  -0.86055
  Beta  occ. eigenvalues --   -0.84599  -0.83536  -0.82650  -0.82037  -0.81432
  Beta  occ. eigenvalues --   -0.79851  -0.79152  -0.78842  -0.77966  -0.76180
  Beta  occ. eigenvalues --   -0.76158  -0.75547  -0.74028  -0.73160  -0.72988
  Beta  occ. eigenvalues --   -0.72838  -0.72390  -0.70435  -0.69718  -0.68509
  Beta  occ. eigenvalues --   -0.67276  -0.66379  -0.65240  -0.65158  -0.64265
  Beta  occ. eigenvalues --   -0.62967  -0.62850  -0.62155  -0.61640  -0.60316
  Beta  occ. eigenvalues --   -0.59991  -0.59633  -0.59502  -0.59189  -0.58772
  Beta  occ. eigenvalues --   -0.58697  -0.58406  -0.58390  -0.58204  -0.57914
  Beta  occ. eigenvalues --   -0.57827  -0.57495  -0.57337  -0.56980  -0.56704
  Beta  occ. eigenvalues --   -0.56276  -0.55785  -0.55019  -0.54536  -0.54325
  Beta  occ. eigenvalues --   -0.54311  -0.53934  -0.53692  -0.53651  -0.53539
  Beta  occ. eigenvalues --   -0.53041  -0.52732  -0.52562  -0.52437  -0.52106
  Beta  occ. eigenvalues --   -0.51891  -0.51651  -0.51509  -0.51180  -0.51103
  Beta  occ. eigenvalues --   -0.50751  -0.50517  -0.50122  -0.49670  -0.49556
  Beta  occ. eigenvalues --   -0.49425  -0.49163  -0.48906  -0.48885  -0.48068
  Beta  occ. eigenvalues --   -0.47796  -0.47767  -0.47405  -0.47256  -0.47177
  Beta  occ. eigenvalues --   -0.46955  -0.46770  -0.46419  -0.45933  -0.45473
  Beta  occ. eigenvalues --   -0.45049  -0.44536  -0.44236  -0.44016  -0.43445
  Beta  occ. eigenvalues --   -0.43386  -0.43152  -0.42774  -0.42745  -0.41866
  Beta  occ. eigenvalues --   -0.41611  -0.40775  -0.39423  -0.39336  -0.38856
  Beta  occ. eigenvalues --   -0.38439  -0.37280  -0.35790  -0.34966  -0.34778
  Beta  occ. eigenvalues --   -0.34611  -0.34310  -0.33782  -0.33456  -0.30581
  Beta  occ. eigenvalues --   -0.30254  -0.29833  -0.28996
  Beta virt. eigenvalues --   -0.20842  -0.20486  -0.18475  -0.16730  -0.16525
  Beta virt. eigenvalues --   -0.14431  -0.12748  -0.11779  -0.10274  -0.10040
  Beta virt. eigenvalues --   -0.07998  -0.07751  -0.07195  -0.07040  -0.06500

 Mulliken charges and spin densities:
               1          2
     1  C   -0.350216   0.001197
     2  C    0.109714   0.005083
     3  N   -0.198500   0.004620
     4  C   -0.171147   0.001325
     5  C    0.029825   0.006155
     6  N    0.016818   0.073498
     7  C   -0.324240  -0.001905
     8  C   -0.129277   0.029363
     9  S   -0.024789   0.068016
    10  C   -0.586301   0.036560
    11  Fe  -0.228935   4.313991
    12  C   -0.548645  -0.015410
    13  C   -0.478208  -0.019823
    14  C   -0.467754  -0.013553
    15  C   -0.489729  -0.017972
    16  N    0.040317   0.043154
    17  C    0.284590   0.017243
    18  C   -0.000877   0.018391
    19  C   -0.248817   0.016365
    20  C    0.297313   0.017010
    21  C   -0.557997   0.009969
    22  C   -0.312940  -0.000637
    23  C   -0.133515   0.000508
    24  C    0.258410   0.000054
    25  O   -0.369446   0.000094
    26  O   -0.327627  -0.000006
    27  N   -0.058794   0.044609
    28  C    0.164757   0.017329
    29  C   -0.038335   0.019463
    30  C    0.103927   0.019883
    31  C    0.150612   0.015212
    32  C   -0.392253   0.000005
    33  C   -0.258821  -0.000777
    34  C   -0.332537   0.000705
    35  N   -0.008602   0.050452
    36  C    0.218024   0.011860
    37  C   -0.072293   0.020876
    38  C   -0.010715   0.007830
    39  C    0.277790   0.024183
    40  C   -0.360846  -0.000159
    41  C   -0.247187   0.000348
    42  C   -0.332207   0.000305
    43  N   -0.045774   0.064794
    44  C    0.236009   0.021651
    45  C   -0.041683   0.018310
    46  C    0.066518   0.019608
    47  C    0.247403   0.022817
    48  C   -0.380340   0.000287
    49  C   -0.372633  -0.000025
    50  C   -0.060685   0.000810
    51  C    0.260923   0.000115
    52  O   -0.348128   0.000027
    53  O   -0.345464   0.000240
    54  H    0.154988   0.000038
    55  H    0.159373   0.000091
    56  H    0.130831   0.000174
    57  H    0.158283   0.001100
    58  H    0.181373   0.000940
    59  H    0.152361   0.000960
    60  H    0.083206   0.001507
    61  H    0.126463   0.000146
    62  H    0.144352   0.004404
    63  H    0.131434   0.001309
    64  H    0.256601  -0.000401
    65  H    0.255201  -0.001310
    66  H    0.209122   0.004762
    67  H    0.152271   0.000378
    68  H    0.111784   0.000501
    69  H    0.130008   0.000510
    70  H    0.137926   0.000425
    71  H    0.268428   0.000140
    72  H    0.229888   0.000232
    73  H    0.252383  -0.000164
    74  H    0.155576   0.000532
    75  H    0.130757   0.000500
    76  H    0.108269  -0.000011
    77  H    0.112388  -0.000027
    78  H    0.148548   0.000529
    79  H    0.158434   0.000843
    80  H    0.130572  -0.000004
    81  H    0.106493   0.000298
    82  H    0.110503   0.000077
    83  H    0.132813   0.000194
    84  H    0.155140   0.000772
    85  H    0.139636   0.000456
    86  H    0.135790   0.000453
    87  H    0.106243   0.000070
    88  H    0.118281   0.000032
    89  H    0.129914   0.000083
    90  H    0.140268   0.000470
    91  H    0.158597   0.000830
    92  H    0.143288   0.000237
    93  H    0.151217   0.000592
    94  H    0.124422   0.000029
    95  H    0.092481   0.000012
    96  H    0.109531  -0.000045
    97  H    0.246359   0.001818
    98  H    0.360815   0.000015
    99  H    0.362978  -0.000001
   100  H    0.115495  -0.000036
   101  H    0.133613   0.000523
   102  H    0.126076   0.000997
   103  H    0.122534  -0.000032
 Sum of Mulliken charges =   1.00000   5.00000

 Dipole moment (field-independent basis, Debye):
    X=              9.0655    Y=             -3.3623    Z=              5.2782  Tot=             11.0158
 Quadrupole moment (field-independent basis, Debye-Ang):
   XX=           -280.2477   YY=           -261.3674   ZZ=           -276.5622
   XY=             14.8824   XZ=             -3.1311   YZ=            -14.8221

 Summary of Natural Population Analysis:

                                       Natural Population
                Natural  -----------------------------------------------
    Atom  No    Charge         Core      Valence    Rydberg      Total
 -----------------------------------------------------------------------
      C    1   -0.32089      0.99970     2.31776    0.00343     3.32089
      C    2    0.06518      0.99953     1.92643    0.00886     2.93482
      N    3   -0.22919      0.99968     2.71990    0.00961     3.72919
      C    4   -0.03104      0.99941     2.02289    0.00875     3.03104
      C    5    0.10955      0.99962     1.88006    0.01077     2.89045
      N    6   -0.14616      0.99969     2.62366    0.02282     3.64616
      C    7   -0.30741      0.99971     2.30143    0.00627     3.30741
      C    8   -0.24349      0.99966     2.23250    0.01133     3.24349
      S    9    0.38238      4.99882     2.59012    0.02868     7.61762
      C   10   -0.64700      0.99955     2.61349    0.03396     3.64700
     Fe   11    2.21151      8.99454     1.74468    0.04927    10.78849
      C   12   -0.12449      0.99947     2.11698    0.00804     3.12449
      C   13   -0.13298      0.99949     2.12519    0.00830     3.13298
      C   14   -0.12066      0.99948     2.11340    0.00777     3.12066
      C   15   -0.11564      0.99948     2.10813    0.00803     3.11564
      N   16   -0.18699      0.99969     2.66637    0.02093     3.68699
      C   17    0.09888      0.99951     1.89159    0.01002     2.90112
      C   18    0.00256      0.99943     1.98849    0.00952     2.99744
      C   19    0.02953      0.99931     1.96032    0.01085     2.97047
      C   20    0.07493      0.99949     1.91491    0.01067     2.92507
      C   21   -0.59995      0.99954     2.56975    0.03066     3.59995
      C   22   -0.20710      0.99966     2.20066    0.00678     3.20710
      C   23   -0.24772      0.99964     2.23986    0.00822     3.24772
      C   24    0.38148      0.99977     1.60020    0.01856     2.61852
      O   25   -0.30187      0.99989     3.28975    0.01223     4.30187
      O   26   -0.32706      0.99981     3.31358    0.01367     4.32706
      N   27   -0.20059      0.99971     2.67971    0.02117     3.70059
      C   28    0.08830      0.99951     1.90229    0.00990     2.91170
      C   29    0.00714      0.99946     1.98538    0.00802     2.99286
      C   30    0.00732      0.99947     1.98375    0.00946     2.99268
      C   31    0.08614      0.99952     1.90416    0.01018     2.91386
      C   32   -0.32010      0.99969     2.31664    0.00377     3.32010
      C   33   -0.22882      0.99961     2.22060    0.00861     3.22882
      C   34   -0.29264      0.99966     2.28603    0.00695     3.29264
      N   35   -0.17903      0.99971     2.65899    0.02033     3.67903
      C   36    0.09002      0.99951     1.90083    0.00964     2.90998
      C   37    0.01490      0.99948     1.97793    0.00769     2.98510
      C   38    0.00345      0.99949     1.98776    0.00930     2.99655
      C   39    0.10394      0.99952     1.88651    0.01003     2.89606
      C   40   -0.31999      0.99969     2.31666    0.00364     3.31999
      C   41   -0.22925      0.99960     2.22064    0.00901     3.22925
      C   42   -0.29455      0.99963     2.28745    0.00747     3.29455
      N   43   -0.18405      0.99970     2.66397    0.02038     3.68405
      C   44    0.08954      0.99948     1.90112    0.00986     2.91046
      C   45    0.00632      0.99941     1.98617    0.00811     2.99368
      C   46    0.00422      0.99942     1.98731    0.00905     2.99578
      C   47    0.08204      0.99946     1.90831    0.01019     2.91796
      C   48   -0.31979      0.99969     2.31638    0.00372     3.31979
      C   49   -0.21116      0.99966     2.20498    0.00652     3.21116
      C   50   -0.24473      0.99963     2.23660    0.00849     3.24473
      C   51    0.37986      0.99976     1.60204    0.01835     2.62014
      O   52   -0.33712      0.99980     3.32331    0.01400     4.33712
      O   53   -0.28722      0.99989     3.27534    0.01199     4.28722
      H   54    0.11937      0.00000     0.38004    0.00059     0.38063
      H   55    0.11916      0.00000     0.38020    0.00065     0.38084
      H   56    0.11197      0.00000     0.38746    0.00058     0.38803
      H   57    0.12168      0.00000     0.37749    0.00083     0.37832
      H   58    0.11645      0.00000     0.38278    0.00077     0.38355
      H   59    0.11652      0.00000     0.38293    0.00055     0.38348
      H   60    0.10909      0.00000     0.38981    0.00110     0.39091
      H   61    0.10824      0.00000     0.39114    0.00062     0.39176
      H   62    0.12255      0.00000     0.37658    0.00087     0.37745
      H   63    0.11462      0.00000     0.38404    0.00134     0.38538
      H   64    0.20653      0.00000     0.29263    0.00084     0.29347
      H   65    0.20214      0.00000     0.29675    0.00111     0.29786
      H   66    0.20455      0.00000     0.29342    0.00202     0.29545
      H   67    0.11492      0.00000     0.38367    0.00140     0.38508
      H   68    0.11240      0.00000     0.38567    0.00193     0.38760
      H   69    0.11572      0.00000     0.38308    0.00120     0.38428
      H   70    0.11496      0.00000     0.38397    0.00107     0.38504
      H   71    0.19714      0.00000     0.30213    0.00073     0.30286
      H   72    0.20841      0.00000     0.28988    0.00171     0.29159
      H   73    0.21210      0.00000     0.28677    0.00113     0.28790
      H   74    0.12120      0.00000     0.37777    0.00103     0.37880
      H   75    0.12048      0.00000     0.37847    0.00104     0.37952
      H   76    0.11752      0.00000     0.38173    0.00075     0.38248
      H   77    0.10945      0.00000     0.38966    0.00088     0.39055
      H   78    0.11531      0.00000     0.38392    0.00077     0.38469
      H   79    0.11695      0.00000     0.38231    0.00074     0.38305
      H   80    0.11059      0.00000     0.38884    0.00057     0.38941
      H   81    0.10661      0.00000     0.39244    0.00095     0.39339
      H   82    0.10259      0.00000     0.39667    0.00074     0.39741
      H   83    0.11174      0.00000     0.38775    0.00052     0.38826
      H   84    0.11775      0.00000     0.38157    0.00068     0.38225
      H   85    0.11309      0.00000     0.38620    0.00071     0.38691
      H   86    0.11148      0.00000     0.38783    0.00069     0.38852
      H   87    0.10634      0.00000     0.39272    0.00094     0.39366
      H   88    0.10464      0.00000     0.39465    0.00071     0.39536
      H   89    0.11067      0.00000     0.38878    0.00055     0.38933
      H   90    0.11399      0.00000     0.38522    0.00080     0.38601
      H   91    0.11720      0.00000     0.38209    0.00071     0.38280
      H   92    0.11421      0.00000     0.38515    0.00064     0.38579
      H   93    0.11794      0.00000     0.38101    0.00105     0.38206
      H   94    0.11193      0.00000     0.38715    0.00092     0.38807
      H   95    0.11069      0.00000     0.38840    0.00091     0.38931
      H   96    0.11880      0.00000     0.38029    0.00091     0.38120
      H   97    0.21304      0.00000     0.28616    0.00080     0.28696
      H   98    0.26019      0.00000     0.23848    0.00132     0.23981
      H   99    0.26170      0.00000     0.23712    0.00119     0.23830
      H  100    0.10407      0.00000     0.39526    0.00067     0.39593
      H  101    0.11327      0.00000     0.38560    0.00114     0.38673
      H  102    0.11253      0.00000     0.38625    0.00122     0.38747
      H  103    0.10501      0.00000     0.39434    0.00065     0.39499
 =======================================================================
   * Total *    3.00000     64.97271   137.32721    0.70008   203.00000

 Normal termination of Gaussian 16 at Sat Oct  1 04:55:41 2022.
