 Gaussian 16, Revision A.03,
 Gaussian 16:  ES64L-G16RevA.03 25-Dec-2016

 ----------------------------------------------------------------------
 # PBE1PBE/def2TZVP empiricaldispersion=GD3BJ int=(grid=ultrafine) geom
 =check pop=nbo
 ----------------------------------------------------------------------

 ---------
 1f1f_II_Q
 ---------
 Structure from the checkpoint file:  "1f1f_II_Q.chk"
 Charge =  0 Multiplicity = 5

                         Standard orientation:
 ---------------------------------------------------------------------
 Center     Atomic      Atomic             Coordinates (Angstroms)
 Number     Number       Type             X           Y           Z
 ---------------------------------------------------------------------
      1          6           0        2.701855   -1.695484    4.863536
      2          6           0        1.841605   -1.105113    3.786270
      3          7           0        0.532127   -0.721753    3.992615
      4          6           0        2.098814   -0.862301    2.479286
      5          6           0        0.020964   -0.272272    2.862315
      6          7           0        0.950442   -0.346928    1.927392
      7          6           0       -1.218963    2.618193   -2.791159
      8          6           0       -0.521306    1.394438   -3.357544
      9         16           0        0.691682    0.589624   -2.294062
     10          6           0        1.380636   -0.622806   -3.449338
     11         26           0        0.813578   -0.087145   -0.068126
     12          6           0       -2.584210   -0.337665   -0.082105
     13          6           0        1.136760   -3.430197   -0.631943
     14          6           0        4.250752    0.340541   -0.452109
     15          6           0        0.551758    3.183354    0.961997
     16          7           0       -0.458964   -1.582635   -0.260392
     17          6           0       -1.852135   -1.523186   -0.235405
     18          6           0       -2.472282   -2.848731   -0.530313
     19          6           0       -1.400338   -3.687912   -0.832274
     20          6           0       -0.162566   -2.906124   -0.573445
     21          6           0       -1.472236   -5.151343   -1.338077
     22          6           0       -3.975651   -3.214350   -0.344269
     23          6           0       -4.387828   -2.902604    1.092872
     24          6           0       -5.849598   -3.198924    1.400721
     25          8           0       -6.739810   -2.601525    0.763286
     26          8           0       -6.113064   -4.023929    2.300219
     27          7           0        2.373185   -1.295387   -0.370248
     28          6           0        2.323377   -2.688321   -0.530376
     29          6           0        3.661276   -3.227764   -0.776210
     30          6           0        4.523482   -2.156172   -0.814045
     31          6           0        3.727448   -0.955904   -0.542272
     32          6           0        4.061290   -4.702738   -0.884498
     33          6           0        5.897786   -2.224098   -1.081887
     34          6           0        6.341315   -2.343687   -2.398855
     35          7           0        2.109330    1.446176    0.153637
     36          6           0        3.489903    1.473508   -0.128891
     37          6           0        4.079909    2.769200    0.265993
     38          6           0        3.071063    3.478317    0.909414
     39          6           0        1.842803    2.691446    0.735866
     40          6           0        5.466110    3.326042   -0.074466
     41          6           0        3.201769    4.724640    1.573897
     42          6           0        3.396796    5.877769    0.857779
     43          7           0       -0.685273    1.146923    0.340273
     44          6           0       -0.621009    2.489242    0.734844
     45          6           0       -1.940199    3.075384    0.765978
     46          6           0       -2.811471    2.078727    0.439215
     47          6           0       -2.039134    0.898400    0.196110
     48          6           0       -2.308575    4.539859    1.007868
     49          6           0       -4.322616    2.151177    0.257007
     50          6           0       -4.665191    2.926687   -1.003109
     51          6           0       -6.124000    2.792947   -1.396537
     52          8           0       -6.524433    1.703436   -1.880522
     53          8           0       -6.872871    3.778529   -1.212121
     54          1           0        3.130949   -2.611725    4.515282
     55          1           0        3.482903   -1.008037    5.113095
     56          1           0        2.105483   -1.887909    5.730838
     57          1           0        3.023648   -1.038747    1.970907
     58          1           0       -0.976376    0.090723    2.726492
     59          1           0       -2.030592    2.894310   -3.431407
     60          1           0       -1.595113    2.394359   -1.814783
     61          1           0       -0.522863    3.428361   -2.728122
     62          1           0        0.035777    1.752585   -4.197955
     63          1           0       -1.295815    0.669775   -3.498607
     64          1           0        2.282956   -1.197221   -3.421687
     65          1           0        2.097706    0.162985   -3.564411
     66          1           0        1.158803   -1.266623   -2.623995
     67          1           0       -3.647242   -0.396100   -0.189107
     68          1           0        1.231547   -4.487572   -0.765632
     69          1           0        5.295289    0.474591   -0.641515
     70          1           0        0.466164    4.179782    1.342398
     71          1           0       -0.802820   -5.977574   -1.219235
     72          1           0       -0.647107   -4.799696   -1.921521
     73          1           0       -1.578317   -5.319010   -0.286633
     74          1           0       -4.055360   -4.274230   -0.467556
     75          1           0       -4.535743   -2.558459   -0.977518
     76          1           0       -4.276039   -1.844307    1.204282
     77          1           0       -3.820268   -3.568331    1.708975
     78          1           0        4.744334   -4.828211   -1.698504
     79          1           0        4.530444   -5.012811    0.025804
     80          1           0        3.188460   -5.297305   -1.056420
     81          1           0        6.344141   -1.340463   -0.675861
     82          1           0        5.644020   -1.865795   -3.054827
     83          1           0        7.299572   -1.877673   -2.496191
     84          1           0        5.498482    3.593739   -1.109932
     85          1           0        5.659564    4.191711    0.523943
     86          1           0        6.208346    2.581552    0.124830
     87          1           0        2.316148    4.863603    2.158075
     88          1           0        2.928107    5.786536   -0.099773
     89          1           0        2.968656    6.703151    1.387250
     90          1           0       -3.242245    4.756062    0.532037
     91          1           0       -2.394823    4.716915    2.059587
     92          1           0       -1.546389    5.171213    0.601218
     93          1           0       -4.702674    2.720722    1.079244
     94          1           0       -4.659971    1.148003    0.099739
     95          1           0       -4.102826    2.472886   -1.792229
     96          1           0       -4.516074    3.959185   -0.765174
     97          1           0        0.045535   -0.776223    4.864545
     98          1           0       -6.883497   -4.591118    2.220662
     99          1           0       -7.023992    1.697129   -2.700279
    100          1           0        4.445797    6.043359    0.727103
    101          1           0        4.023537    4.633865    2.253130
    102          1           0        6.285724   -3.060772   -0.539319
    103          1           0        6.420603   -3.379335   -2.655850
 ---------------------------------------------------------------------

 SCF Done:  E(UPBE1PBE) =  -3881.41967970     A.U. after   48 cycles

 Alpha virt. eigenvalues --    1.05766   1.06057   1.06185   1.06547   1.06750
 Alpha virt. eigenvalues --    1.06988   1.07446   1.07708   1.07987   1.08170
 Alpha virt. eigenvalues --    1.08319   1.08898   1.09025   1.09263   1.10011

  Beta  occ. eigenvalues -- -256.32500 -89.02858 -30.05413 -25.89068 -25.88472
  Beta  occ. eigenvalues --  -25.88231 -19.26538 -19.25559 -19.17294 -19.17282
  Beta  occ. eigenvalues --  -14.45033 -14.37800 -14.36967 -14.36766 -14.36137
  Beta  occ. eigenvalues --  -14.36027 -10.34858 -10.34573 -10.28097 -10.27384
  Beta  occ. eigenvalues --  -10.26195 -10.25701 -10.25659 -10.25332 -10.25021
  Beta  occ. eigenvalues --  -10.25012 -10.24810 -10.24553 -10.24319 -10.23646
  Beta  occ. eigenvalues --  -10.23321 -10.23262 -10.23008 -10.22979 -10.22847
  Beta  occ. eigenvalues --  -10.22654 -10.22565 -10.22520 -10.22468 -10.22449
  Beta  occ. eigenvalues --  -10.22358 -10.22287 -10.22027 -10.21852 -10.21836
  Beta  occ. eigenvalues --  -10.21784 -10.21582 -10.21461 -10.21378 -10.21360
  Beta  occ. eigenvalues --  -10.19934 -10.19913 -10.19625 -10.19512 -10.19089
  Beta  occ. eigenvalues --  -10.18980 -10.18267  -8.00553  -5.94376  -5.93907
  Beta  occ. eigenvalues --   -5.93212  -3.36410  -2.11513  -2.11140  -2.10928
  Beta  occ. eigenvalues --   -1.17222  -1.16019  -1.06726  -1.02206  -1.01870
  Beta  occ. eigenvalues --   -0.96911  -0.95893  -0.95390  -0.94237  -0.90897
  Beta  occ. eigenvalues --   -0.85651  -0.85414  -0.84797  -0.84409  -0.84167
  Beta  occ. eigenvalues --   -0.83380  -0.81873  -0.81700  -0.80678  -0.79698
  Beta  occ. eigenvalues --   -0.78929  -0.78405  -0.78183  -0.77837  -0.75171
  Beta  occ. eigenvalues --   -0.74936  -0.73651  -0.72968  -0.72362  -0.71816
  Beta  occ. eigenvalues --   -0.70748  -0.69581  -0.69256  -0.67969  -0.66084
  Beta  occ. eigenvalues --   -0.65817  -0.65119  -0.64836  -0.64472  -0.63450
  Beta  occ. eigenvalues --   -0.63427  -0.62456  -0.59331  -0.59091  -0.57463
  Beta  occ. eigenvalues --   -0.56928  -0.56185  -0.55044  -0.54835  -0.53965
  Beta  occ. eigenvalues --   -0.52715  -0.52499  -0.52095  -0.51217  -0.51057
  Beta  occ. eigenvalues --   -0.50802  -0.50343  -0.50241  -0.50166  -0.50010
  Beta  occ. eigenvalues --   -0.49659  -0.49340  -0.48929  -0.48676  -0.48426
  Beta  occ. eigenvalues --   -0.48246  -0.48097  -0.47877  -0.47390  -0.46604
  Beta  occ. eigenvalues --   -0.46289  -0.45829  -0.45657  -0.45513  -0.44889
  Beta  occ. eigenvalues --   -0.44759  -0.44190  -0.44002  -0.43963  -0.43848
  Beta  occ. eigenvalues --   -0.43528  -0.43024  -0.42907  -0.42738  -0.42611
  Beta  occ. eigenvalues --   -0.42359  -0.41918  -0.41627  -0.41217  -0.40825
  Beta  occ. eigenvalues --   -0.40547  -0.40413  -0.40128  -0.39887  -0.39596
  Beta  occ. eigenvalues --   -0.39542  -0.39212  -0.38862  -0.38670  -0.38460
  Beta  occ. eigenvalues --   -0.38196  -0.38001  -0.37758  -0.37499  -0.37205
  Beta  occ. eigenvalues --   -0.36931  -0.36784  -0.36311  -0.35903  -0.35412
  Beta  occ. eigenvalues --   -0.35129  -0.34826  -0.34292  -0.33958  -0.33682
  Beta  occ. eigenvalues --   -0.33269  -0.32899  -0.32473  -0.32304  -0.32179
  Beta  occ. eigenvalues --   -0.31965  -0.31303  -0.30764  -0.29917  -0.28110
  Beta  occ. eigenvalues --   -0.27799  -0.27449  -0.27030  -0.25895  -0.25170
  Beta  occ. eigenvalues --   -0.24562  -0.23592  -0.23500  -0.22700  -0.20528
  Beta  occ. eigenvalues --   -0.19140  -0.18779  -0.18748  -0.15172
  Beta virt. eigenvalues --   -0.08109  -0.06560  -0.02664  -0.01793  -0.00905
  Beta virt. eigenvalues --   -0.00735  -0.00261  -0.00058   0.00389   0.01870
  Beta virt. eigenvalues --    0.02666   0.02803   0.03114   0.03268   0.03777

 Mulliken charges and spin densities:
               1          2
     1  C   -0.362659   0.000824
     2  C    0.120098   0.002231
     3  N   -0.213183   0.001847
     4  C   -0.171667   0.002783
     5  C    0.022372   0.006330
     6  N   -0.004660   0.032882
     7  C   -0.318556  -0.001387
     8  C   -0.120729   0.029303
     9  S   -0.033262   0.032162
    10  C   -0.629877   0.000078
    11  Fe  -0.196496   3.845644
    12  C   -0.557689  -0.011221
    13  C   -0.491415  -0.019936
    14  C   -0.482732   0.000573
    15  C   -0.507288  -0.015536
    16  N   -0.001132   0.007852
    17  C    0.280140  -0.009504
    18  C   -0.017615   0.013578
    19  C   -0.242533  -0.001531
    20  C    0.289762  -0.000422
    21  C   -0.592940  -0.001306
    22  C   -0.320057  -0.000066
    23  C   -0.125694  -0.000024
    24  C    0.255419   0.000011
    25  O   -0.378924   0.000044
    26  O   -0.331523  -0.000003
    27  N   -0.060038   0.044395
    28  C    0.159357  -0.000647
    29  C   -0.039937  -0.011385
    30  C    0.094616   0.005419
    31  C    0.152842  -0.018891
    32  C   -0.409062   0.001694
    33  C   -0.274879   0.001318
    34  C   -0.319696  -0.000390
    35  N   -0.046549   0.024488
    36  C    0.212367  -0.018483
    37  C   -0.076797   0.004689
    38  C   -0.015454   0.000184
    39  C    0.277719  -0.003618
    40  C   -0.373267   0.000394
    41  C   -0.260202   0.001090
    42  C   -0.318281   0.000025
    43  N   -0.058909   0.050408
    44  C    0.230647  -0.006560
    45  C   -0.037328  -0.002536
    46  C    0.042906  -0.002658
    47  C    0.247621  -0.002064
    48  C   -0.396792   0.001973
    49  C   -0.386244   0.001773
    50  C   -0.053104  -0.000805
    51  C    0.257847  -0.000088
    52  O   -0.343885  -0.000007
    53  O   -0.364471   0.000048
    54  H    0.147829   0.000015
    55  H    0.147843   0.000034
    56  H    0.115893  -0.000064
    57  H    0.146164   0.001390
    58  H    0.167297   0.001189
    59  H    0.126518   0.000851
    60  H    0.095659   0.000965
    61  H    0.109148   0.000046
    62  H    0.117652   0.003487
    63  H    0.111103   0.000323
    64  H    0.239646  -0.000371
    65  H    0.241441  -0.001257
    66  H    0.206252   0.003823
    67  H    0.133974   0.000460
    68  H    0.090929   0.000229
    69  H    0.107143   0.000200
    70  H    0.114112   0.000304
    71  H    0.252281   0.000052
    72  H    0.226958   0.000483
    73  H    0.241450  -0.000049
    74  H    0.139294   0.000576
    75  H    0.121515   0.000219
    76  H    0.112459  -0.000053
    77  H    0.104682   0.000043
    78  H    0.133926  -0.000010
    79  H    0.141193  -0.000553
    80  H    0.123278   0.000019
    81  H    0.098458  -0.000325
    82  H    0.114972   0.000185
    83  H    0.112868  -0.000229
    84  H    0.141841   0.000010
    85  H    0.124050   0.000455
    86  H    0.126123   0.000021
    87  H    0.102365   0.000074
    88  H    0.118663   0.000039
    89  H    0.112576   0.000019
    90  H    0.125514   0.000146
    91  H    0.141837  -0.000531
    92  H    0.135678  -0.000532
    93  H    0.136091   0.000249
    94  H    0.119673  -0.000062
    95  H    0.098411   0.000243
    96  H    0.099381   0.000065
    97  H    0.226396   0.002757
    98  H    0.349674   0.000002
    99  H    0.353842  -0.000001
   100  H    0.102211  -0.000046
   101  H    0.117863  -0.000264
   102  H    0.109798   0.000300
   103  H    0.107887   0.000110
 Sum of Mulliken charges =  -0.00000   4.00000

 Dipole moment (field-independent basis, Debye):
    X=              6.0035    Y=             -2.8679    Z=              6.4006  Tot=              9.2322
 Quadrupole moment (field-independent basis, Debye-Ang):
   XX=           -342.1818   YY=           -313.2646   ZZ=           -305.8719
   XY=             16.8685   XZ=             -2.0986   YZ=            -18.6986

 Summary of Natural Population Analysis:

                                       Natural Population
                Natural  -----------------------------------------------
    Atom  No    Charge         Core      Valence    Rydberg      Total
 -----------------------------------------------------------------------
      C    1   -0.31931      0.99970     2.31614    0.00346     3.31931
      C    2    0.05068      0.99953     1.94051    0.00927     2.94932
      N    3   -0.23724      0.99968     2.72766    0.00990     3.73724
      C    4   -0.02910      0.99942     2.02029    0.00939     3.02910
      C    5    0.10061      0.99964     1.88793    0.01183     2.89939
      N    6   -0.16251      0.99971     2.63820    0.02461     3.66251
      C    7   -0.30778      0.99971     2.30211    0.00597     3.30778
      C    8   -0.24963      0.99966     2.23843    0.01154     3.24963
      S    9    0.34540      4.99893     2.62785    0.02782     7.65460
      C   10   -0.69720      0.99955     2.66264    0.03501     3.69720
     Fe   11    1.92467      8.99410     2.04349    0.03774    11.07533
      C   12   -0.12987      0.99947     2.12217    0.00823     3.12987
      C   13   -0.13813      0.99949     2.13015    0.00849     3.13813
      C   14   -0.12194      0.99948     2.11438    0.00807     3.12194
      C   15   -0.12027      0.99948     2.11236    0.00844     3.12027
      N   16   -0.19612      0.99971     2.67837    0.01804     3.69612
      C   17    0.08120      0.99953     1.90955    0.00972     2.91880
      C   18   -0.01312      0.99942     2.00401    0.00969     3.01312
      C   19    0.01343      0.99931     1.97632    0.01094     2.98657
      C   20    0.06333      0.99950     1.92679    0.01038     2.93667
      C   21   -0.62180      0.99955     2.59092    0.03133     3.62180
      C   22   -0.20567      0.99966     2.19961    0.00640     3.20567
      C   23   -0.24871      0.99964     2.24072    0.00835     3.24871
      C   24    0.38252      0.99977     1.59901    0.01870     2.61748
      O   25   -0.30736      0.99989     3.29523    0.01223     4.30736
      O   26   -0.32908      0.99981     3.31560    0.01368     4.32908
      N   27   -0.19507      0.99973     2.67211    0.02323     3.69507
      C   28    0.06835      0.99952     1.92114    0.01098     2.93165
      C   29   -0.01956      0.99946     2.01161    0.00849     3.01956
      C   30   -0.01509      0.99947     2.00576    0.00985     3.01509
      C   31    0.06028      0.99953     1.92907    0.01112     2.93972
      C   32   -0.31870      0.99970     2.31512    0.00389     3.31870
      C   33   -0.22522      0.99961     2.21663    0.00898     3.22522
      C   34   -0.29248      0.99966     2.28586    0.00697     3.29248
      N   35   -0.18467      0.99973     2.66582    0.01912     3.68467
      C   36    0.07231      0.99952     1.91861    0.00955     2.92769
      C   37   -0.00498      0.99948     1.99734    0.00816     3.00498
      C   38   -0.01541      0.99950     2.00625    0.00967     3.01541
      C   39    0.08502      0.99953     1.90554    0.00991     2.91498
      C   40   -0.31869      0.99969     2.31530    0.00369     3.31869
      C   41   -0.22657      0.99960     2.21760    0.00936     3.22657
      C   42   -0.29380      0.99963     2.28671    0.00745     3.29380
      N   43   -0.18274      0.99972     2.66047    0.02255     3.68274
      C   44    0.06369      0.99949     1.92573    0.01109     2.93631
      C   45   -0.01759      0.99941     2.00969    0.00850     3.01759
      C   46   -0.01842      0.99942     2.00967    0.00934     3.01842
      C   47    0.05666      0.99947     1.93267    0.01120     2.94334
      C   48   -0.31774      0.99969     2.31429    0.00376     3.31774
      C   49   -0.21002      0.99966     2.20362    0.00674     3.21002
      C   50   -0.24619      0.99963     2.23793    0.00863     3.24619
      C   51    0.38255      0.99976     1.59919    0.01850     2.61745
      O   52   -0.33692      0.99980     3.32302    0.01410     4.33692
      O   53   -0.29748      0.99989     3.28562    0.01196     4.29748
      H   54    0.11582      0.00000     0.38354    0.00064     0.38418
      H   55    0.11431      0.00000     0.38497    0.00072     0.38569
      H   56    0.10666      0.00000     0.39271    0.00063     0.39334
      H   57    0.11860      0.00000     0.38047    0.00093     0.38140
      H   58    0.11342      0.00000     0.38575    0.00083     0.38658
      H   59    0.10827      0.00000     0.39118    0.00055     0.39173
      H   60    0.11195      0.00000     0.38699    0.00106     0.38805
      H   61    0.10486      0.00000     0.39451    0.00063     0.39514
      H   62    0.11321      0.00000     0.38584    0.00095     0.38679
      H   63    0.10874      0.00000     0.39002    0.00124     0.39126
      H   64    0.20185      0.00000     0.29719    0.00096     0.29815
      H   65    0.19883      0.00000     0.30000    0.00117     0.30117
      H   66    0.20234      0.00000     0.29534    0.00232     0.29766
      H   67    0.10718      0.00000     0.39147    0.00135     0.39282
      H   68    0.10533      0.00000     0.39264    0.00203     0.39467
      H   69    0.10815      0.00000     0.39058    0.00127     0.39185
      H   70    0.10724      0.00000     0.39163    0.00113     0.39276
      H   71    0.19064      0.00000     0.30854    0.00081     0.30936
      H   72    0.20889      0.00000     0.28924    0.00187     0.29111
      H   73    0.21006      0.00000     0.28878    0.00116     0.28994
      H   74    0.11596      0.00000     0.38268    0.00137     0.38404
      H   75    0.11730      0.00000     0.38167    0.00103     0.38270
      H   76    0.12091      0.00000     0.37831    0.00078     0.37909
      H   77    0.10814      0.00000     0.39097    0.00089     0.39186
      H   78    0.10947      0.00000     0.38970    0.00084     0.39053
      H   79    0.10989      0.00000     0.38923    0.00088     0.39011
      H   80    0.10825      0.00000     0.39114    0.00061     0.39175
      H   81    0.10371      0.00000     0.39521    0.00108     0.39629
      H   82    0.10405      0.00000     0.39514    0.00080     0.39595
      H   83    0.10549      0.00000     0.39391    0.00060     0.39451
      H   84    0.11249      0.00000     0.38675    0.00076     0.38751
      H   85    0.10760      0.00000     0.39164    0.00076     0.39240
      H   86    0.10762      0.00000     0.39160    0.00077     0.39238
      H   87    0.10480      0.00000     0.39419    0.00101     0.39520
      H   88    0.10519      0.00000     0.39405    0.00076     0.39481
      H   89    0.10516      0.00000     0.39422    0.00062     0.39484
      H   90    0.10857      0.00000     0.39058    0.00084     0.39143
      H   91    0.11013      0.00000     0.38903    0.00084     0.38987
      H   92    0.11084      0.00000     0.38843    0.00073     0.38916
      H   93    0.11267      0.00000     0.38623    0.00111     0.38733
      H   94    0.11097      0.00000     0.38809    0.00094     0.38903
      H   95    0.11318      0.00000     0.38590    0.00092     0.38682
      H   96    0.11691      0.00000     0.38215    0.00094     0.38309
      H   97    0.20636      0.00000     0.29279    0.00085     0.29364
      H   98    0.25645      0.00000     0.24204    0.00151     0.24355
      H   99    0.25867      0.00000     0.24003    0.00129     0.24133
      H  100    0.10045      0.00000     0.39881    0.00074     0.39955
      H  101    0.10675      0.00000     0.39198    0.00128     0.39325
      H  102    0.10597      0.00000     0.39265    0.00138     0.39403
      H  103    0.10118      0.00000     0.39812    0.00070     0.39882
 =======================================================================
   * Total *    2.00000     64.97266   138.32145    0.70589   204.00000

 Normal termination of Gaussian 16 at Tue Sep 13 22:00:06 2022.
