 Gaussian 16, Revision A.03,
 Gaussian 16:  ES64L-G16RevA.03 25-Dec-2016

 ----------------------------------------------------------------------
 # PBE1PBE/def2TZVP empiricaldispersion=GD3BJ int=(grid=ultrafine) geom
 =check pop=nbo
 ----------------------------------------------------------------------

 ---------
 1flp_II_Q
 ---------
 Structure from the checkpoint file:  "1flp_II_Q.chk"
 Charge =  0 Multiplicity = 5

                         Standard orientation:
 ---------------------------------------------------------------------
 Center     Atomic      Atomic             Coordinates (Angstroms)
 Number     Number       Type             X           Y           Z
 ---------------------------------------------------------------------
      1          6           0       -1.659744    0.771539    5.227612
      2          6           0       -1.352433    0.133387    3.865769
      3          7           0       -0.899663   -1.186716    3.726733
      4          6           0       -1.342376    0.747241    2.644311
      5          6           0       -0.708827   -1.406708    2.422900
      6          7           0       -0.944352   -0.235918    1.767369
      7         26           0       -0.711417    0.071772   -0.509172
      8          6           0        2.587232   -0.723228   -0.309231
      9          6           0       -1.496157   -3.221771   -1.211492
     10          6           0       -4.039593    0.801228   -0.487433
     11          6           0       -0.022526    3.339890   -0.085464
     12          7           0        0.264941   -1.578979   -0.608089
     13          6           0        1.660379   -1.761876   -0.531961
     14          6           0        2.010266   -3.192485   -0.567822
     15          6           0        0.880399   -3.879069   -0.850318
     16          6           0       -0.183031   -2.884655   -0.848041
     17          6           0        0.756584   -5.404615   -1.032018
     18          6           0        3.396915   -3.780472   -0.261539
     19          6           0        3.520151   -4.301800    1.198400
     20          6           0        3.739072   -3.169927    2.115382
     21          8           0        4.825911   -2.556813    2.047777
     22          8           0        2.783894   -2.732304    2.725009
     23          7           0       -2.481632   -0.997212   -0.921551
     24          6           0       -2.552947   -2.328843   -1.222075
     25          6           0       -3.953809   -2.691857   -1.391859
     26          6           0       -4.682041   -1.583908   -1.130921
     27          6           0       -3.738259   -0.510163   -0.775106
     28          6           0       -4.303431   -4.146835   -1.834905
     29          6           0       -6.156764   -1.259471   -1.040633
     30          6           0       -7.210775   -2.115128   -1.168446
     31          7           0       -1.742752    1.664517   -0.440051
     32          6           0       -3.131103    1.845130   -0.333377
     33          6           0       -3.585141    3.237657   -0.150454
     34          6           0       -2.432164    3.939907   -0.078328
     35          6           0       -1.365150    2.967850   -0.185278
     36          6           0       -5.012306    3.736200   -0.191080
     37          6           0       -2.155144    5.455886    0.086197
     38          6           0       -3.080720    6.254239    0.671440
     39          7           0        0.938904    1.099581   -0.307930
     40          6           0        1.030399    2.468129   -0.125100
     41          6           0        2.421924    2.885926   -0.039432
     42          6           0        3.157970    1.762538   -0.063232
     43          6           0        2.246890    0.620226   -0.266732
     44          6           0        2.870962    4.369940    0.003102
     45          6           0        4.690344    1.730030   -0.182524
     46          6           0        5.162848    2.117383   -1.603952
     47          6           0        6.660840    2.067875   -1.729474
     48          8           0        7.187900    0.967831   -1.932710
     49          8           0        7.319921    3.069429   -1.424354
     50          8           0       -0.564045    0.337710   -2.768431
     51          1           0       -1.439264    0.072379    6.007011
     52          1           0       -1.059303    1.648065    5.354394
     53          1           0       -2.694879    1.039005    5.270715
     54          1           0       -0.747779   -1.842046    4.466648
     55          1           0       -0.422613   -2.335048    1.974386
     56          1           0       -1.588729    1.764114    2.420303
     57          1           0        1.995118   -3.269156    2.830942
     58          1           0        4.346053   -4.978750    1.265669
     59          1           0        2.619670   -4.811335    1.471178
     60          1           0        3.583756   -4.591407   -0.934127
     61          1           0        4.135480   -3.022753   -0.420549
     62          1           0        5.036609    0.743036    0.042963
     63          1           0        5.109496    2.416435    0.523210
     64          1           0        4.731788    1.439526   -2.310774
     65          1           0        4.827788    3.109508   -1.823775
     66          1           0        6.737210    0.311375   -2.468942
     67          1           0        3.065741    4.712294   -0.991762
     68          1           0        2.095984    4.964700    0.439646
     69          1           0        3.760931    4.456583    0.590764
     70          1           0        3.613987   -0.987246   -0.164425
     71          1           0        1.438483   -5.730074   -1.789639
     72          1           0        0.988839   -5.893737   -0.109133
     73          1           0       -0.243524   -5.649089   -1.323421
     74          1           0       -1.692390   -4.233671   -1.498637
     75          1           0        0.197726    4.380569    0.030190
     76          1           0       -3.400531   -4.703431   -1.975871
     77          1           0       -4.897764   -4.616662   -1.079306
     78          1           0       -4.851711   -4.117990   -2.753304
     79          1           0       -7.821947   -2.083766   -2.046163
     80          1           0       -7.426669   -2.817909   -0.391022
     81          1           0       -6.402495   -0.234939   -0.853950
     82          1           0       -5.682566    2.904887   -0.123467
     83          1           0       -5.182101    4.399077    0.631515
     84          1           0       -5.182026    4.257373   -1.110032
     85          1           0       -5.075352    1.042928   -0.370446
     86          1           0       -1.233102    5.872169   -0.262296
     87          1           0       -3.961531    5.825618    1.101971
     88          1           0       -2.930700    7.313200    0.702988
 ---------------------------------------------------------------------

 SCF Done:  E(UPBE1PBE) =  -3437.28025471     A.U. after   76 cycles

 Alpha virt. eigenvalues --    0.67004   0.67440   0.67608   0.67868   0.68097
 Alpha virt. eigenvalues --    0.68411   0.68717   0.68812   0.69075   0.69280
 Alpha virt. eigenvalues --    0.69411   0.69572   0.70192   0.70467   0.70715

  Beta  occ. eigenvalues -- -256.39730 -30.14310 -25.97935 -25.97440 -25.96427
  Beta  occ. eigenvalues --  -19.28828 -19.26438 -19.17636 -19.16579 -19.10317
  Beta  occ. eigenvalues --  -14.47350 -14.40179 -14.40027 -14.39966 -14.39151
  Beta  occ. eigenvalues --  -14.38637 -10.35432 -10.33993 -10.30702 -10.28541
  Beta  occ. eigenvalues --  -10.27098 -10.26895 -10.26855 -10.26556 -10.26321
  Beta  occ. eigenvalues --  -10.25843 -10.25784 -10.25771 -10.25765 -10.25064
  Beta  occ. eigenvalues --  -10.24870 -10.24665 -10.24656 -10.24441 -10.24402
  Beta  occ. eigenvalues --  -10.24330 -10.24320 -10.24150 -10.24065 -10.23976
  Beta  occ. eigenvalues --  -10.23551 -10.23457 -10.23376 -10.23359 -10.23242
  Beta  occ. eigenvalues --  -10.23169 -10.22829 -10.22722 -10.22647 -10.22568
  Beta  occ. eigenvalues --  -10.22285 -10.22140 -10.22009 -10.21481  -3.44976
  Beta  occ. eigenvalues --   -2.21880  -2.20574  -2.16700  -1.20514  -1.17436
  Beta  occ. eigenvalues --   -1.07119  -1.03355  -1.02411  -0.99267  -0.98258
  Beta  occ. eigenvalues --   -0.97857  -0.96867  -0.91815  -0.85332  -0.84501
  Beta  occ. eigenvalues --   -0.84253  -0.83809  -0.82514  -0.82344  -0.82114
  Beta  occ. eigenvalues --   -0.81864  -0.80563  -0.79196  -0.78490  -0.77533
  Beta  occ. eigenvalues --   -0.76454  -0.75053  -0.74183  -0.73757  -0.73675
  Beta  occ. eigenvalues --   -0.73170  -0.72398  -0.71803  -0.70520  -0.69469
  Beta  occ. eigenvalues --   -0.69155  -0.67457  -0.66578  -0.66402  -0.66083
  Beta  occ. eigenvalues --   -0.63934  -0.62335  -0.61532  -0.60332  -0.58855
  Beta  occ. eigenvalues --   -0.57975  -0.57220  -0.56184  -0.55477  -0.55331
  Beta  occ. eigenvalues --   -0.55032  -0.53902  -0.53425  -0.52573  -0.52207
  Beta  occ. eigenvalues --   -0.52093  -0.51325  -0.50683  -0.49973  -0.49853
  Beta  occ. eigenvalues --   -0.49675  -0.49122  -0.48872  -0.48287  -0.47820
  Beta  occ. eigenvalues --   -0.47223  -0.46843  -0.46708  -0.45805  -0.45639
  Beta  occ. eigenvalues --   -0.45477  -0.45331  -0.44971  -0.44804  -0.44726
  Beta  occ. eigenvalues --   -0.44430  -0.44328  -0.44181  -0.43971  -0.43756
  Beta  occ. eigenvalues --   -0.43669  -0.43377  -0.43307  -0.42965  -0.42685
  Beta  occ. eigenvalues --   -0.42420  -0.42052  -0.41810  -0.41373  -0.40924
  Beta  occ. eigenvalues --   -0.40598  -0.40426  -0.40307  -0.39971  -0.39476
  Beta  occ. eigenvalues --   -0.39384  -0.38977  -0.38676  -0.38572  -0.38264
  Beta  occ. eigenvalues --   -0.37705  -0.37486  -0.36835  -0.36353  -0.35779
  Beta  occ. eigenvalues --   -0.35223  -0.34680  -0.34227  -0.33809  -0.33166
  Beta  occ. eigenvalues --   -0.32823  -0.32763  -0.32047  -0.31787  -0.31436
  Beta  occ. eigenvalues --   -0.29452  -0.28787  -0.28244  -0.27596  -0.27019
  Beta  occ. eigenvalues --   -0.26768  -0.25951  -0.25663  -0.25353  -0.25080
  Beta  occ. eigenvalues --   -0.21675  -0.20515  -0.19068  -0.18375  -0.17287
  Beta virt. eigenvalues --   -0.09944  -0.09416  -0.07056  -0.04527  -0.03614
  Beta virt. eigenvalues --   -0.02497  -0.02359  -0.01418  -0.00655  -0.00152
  Beta virt. eigenvalues --    0.00043   0.00369   0.01023   0.01779   0.01934

 Mulliken charges and spin densities:
               1          2
     1  C   -0.366058   0.000938
     2  C    0.129308   0.001910
     3  N   -0.216501   0.001252
     4  C   -0.139846   0.001512
     5  C    0.027654   0.003860
     6  N   -0.157954   0.021575
     7  Fe   0.011254   2.767894
     8  C   -0.455171  -0.018650
     9  C   -0.373324  -0.009928
    10  C   -0.423948  -0.005100
    11  C   -0.435001  -0.014792
    12  N    0.057534  -0.055285
    13  C    0.274704   0.009935
    14  C   -0.173988   0.003292
    15  C   -0.037314   0.008887
    16  C    0.159073   0.003524
    17  C   -0.379924  -0.000578
    18  C   -0.163291  -0.000617
    19  C   -0.233720   0.000313
    20  C    0.249244  -0.000024
    21  O   -0.384368   0.000021
    22  O   -0.233424  -0.000014
    23  N   -0.057902  -0.046314
    24  C    0.218459   0.007766
    25  C   -0.055415   0.004308
    26  C   -0.037302   0.002162
    27  C    0.266627   0.010345
    28  C   -0.339036  -0.000346
    29  C   -0.152590   0.009875
    30  C   -0.385463  -0.008800
    31  N    0.067749  -0.051324
    32  C    0.306739   0.003017
    33  C   -0.082890   0.007833
    34  C   -0.000712   0.004824
    35  C    0.227192   0.006419
    36  C   -0.342306  -0.000926
    37  C   -0.212904  -0.001965
    38  C   -0.246537   0.002656
    39  N    0.013834  -0.059043
    40  C    0.294873   0.012525
    41  C   -0.120746   0.007639
    42  C    0.013128   0.011162
    43  C    0.218605   0.012278
    44  C   -0.393580  -0.000726
    45  C   -0.292934  -0.001491
    46  C   -0.284213   0.000715
    47  C    0.323060   0.000198
    48  O   -0.286831   0.000011
    49  O   -0.366460   0.000135
    50  O   -0.451927   1.341765
    51  H    0.117150   0.000067
    52  H    0.152051   0.000003
    53  H    0.149197   0.000017
    54  H    0.232288   0.001366
    55  H    0.148167  -0.000039
    56  H    0.160905   0.000333
    57  H    0.327363   0.000019
    58  H    0.131556   0.000068
    59  H    0.097954  -0.000049
    60  H    0.125317   0.000026
    61  H    0.136078  -0.000014
    62  H    0.136394   0.000056
    63  H    0.140642   0.000044
    64  H    0.134260  -0.000022
    65  H    0.119074  -0.000038
    66  H    0.343268  -0.000005
    67  H    0.153315   0.000478
    68  H    0.132041   0.000079
    69  H    0.146750  -0.000043
    70  H    0.131857   0.000640
    71  H    0.146482   0.000159
    72  H    0.124053   0.000378
    73  H    0.130376  -0.000046
    74  H    0.077143   0.000236
    75  H    0.077161   0.000470
    76  H    0.118734  -0.000089
    77  H    0.134954  -0.000011
    78  H    0.138698   0.000123
    79  H    0.148287   0.000778
    80  H    0.138451   0.000828
    81  H    0.122931  -0.000675
    82  H    0.123775  -0.000019
    83  H    0.117531   0.000176
    84  H    0.156631   0.000551
    85  H    0.076625  -0.000230
    86  H    0.129562   0.000064
    87  H    0.115003  -0.000130
    88  H    0.132518  -0.000171
 Sum of Mulliken charges =  -0.00000   4.00000

 Dipole moment (field-independent basis, Debye):
    X=             -6.4288    Y=             -6.3355    Z=              8.3127  Tot=             12.2707
 Quadrupole moment (field-independent basis, Debye-Ang):
   XX=           -347.4976   YY=           -252.3001   ZZ=           -284.9086
   XY=            -31.6892   XZ=            -22.7596   YZ=              0.3583

 Summary of Natural Population Analysis:

                                       Natural Population
                Natural  -----------------------------------------------
    Atom  No    Charge         Core      Valence    Rydberg      Total
 -----------------------------------------------------------------------
      C    1   -0.31975      0.99970     2.31703    0.00302     3.31975
      C    2    0.05833      0.99955     1.93266    0.00947     2.94167
      N    3   -0.24394      0.99969     2.73429    0.00996     3.74394
      C    4   -0.03643      0.99945     2.02778    0.00921     3.03643
      C    5    0.08763      0.99970     1.90295    0.00972     2.91237
      N    6   -0.18334      0.99976     2.66398    0.01960     3.68334
     Fe    7    1.60085      8.99464     2.38048    0.02403    11.39915
      C    8   -0.13224      0.99949     2.12416    0.00859     3.13224
      C    9   -0.11528      0.99948     2.10768    0.00812     3.11528
      C   10   -0.11708      0.99948     2.10918    0.00842     3.11708
      C   11   -0.12372      0.99948     2.11615    0.00809     3.12372
      N   12   -0.22340      0.99968     2.70300    0.02072     3.72340
      C   13    0.09291      0.99954     1.89728    0.01028     2.90709
      C   14   -0.02118      0.99940     2.01235    0.00943     3.02118
      C   15   -0.01167      0.99937     2.00329    0.00901     3.01167
      C   16    0.07921      0.99951     1.91057    0.01070     2.92079
      C   17   -0.31662      0.99969     2.31319    0.00373     3.31662
      C   18   -0.20601      0.99965     2.19927    0.00708     3.20601
      C   19   -0.25206      0.99962     2.24369    0.00874     3.25206
      C   20    0.37719      0.99969     1.60503    0.01809     2.62281
      O   21   -0.30329      0.99989     3.29148    0.01192     4.30329
      O   22   -0.30255      0.99978     3.28565    0.01713     4.30255
      N   23   -0.20789      0.99967     2.68728    0.02094     3.70789
      C   24    0.08094      0.99953     1.90899    0.01054     2.91906
      C   25    0.00683      0.99939     1.98482    0.00897     2.99317
      C   26   -0.04760      0.99939     2.03810    0.01012     3.04760
      C   27    0.09849      0.99955     1.89153    0.01044     2.90151
      C   28   -0.31306      0.99969     2.30953    0.00385     3.31306
      C   29   -0.07752      0.99962     2.06745    0.01045     3.07752
      C   30   -0.22295      0.99965     2.21163    0.01166     3.22295
      N   31   -0.21192      0.99966     2.69106    0.02120     3.71192
      C   32    0.08930      0.99952     1.90073    0.01046     2.91070
      C   33    0.00236      0.99941     1.98957    0.00866     2.99764
      C   34   -0.03917      0.99936     2.02921    0.01059     3.03917
      C   35    0.09663      0.99952     1.89340    0.01045     2.90337
      C   36   -0.31605      0.99969     2.31239    0.00397     3.31605
      C   37   -0.09980      0.99960     2.09138    0.00883     3.09980
      C   38   -0.18573      0.99964     2.17842    0.00768     3.18573
      N   39   -0.21387      0.99967     2.69460    0.01960     3.71387
      C   40    0.09179      0.99950     1.89841    0.01029     2.90821
      C   41    0.00044      0.99937     1.99196    0.00823     2.99956
      C   42   -0.00529      0.99938     1.99687    0.00905     3.00529
      C   43    0.09460      0.99954     1.89571    0.01016     2.90540
      C   44   -0.31865      0.99969     2.31527    0.00368     3.31865
      C   45   -0.20646      0.99966     2.20014    0.00666     3.20646
      C   46   -0.25098      0.99963     2.24264    0.00870     3.25098
      C   47    0.37828      0.99973     1.60387    0.01812     2.62172
      O   48   -0.31524      0.99980     3.29946    0.01598     4.31524
      O   49   -0.29166      0.99989     3.27941    0.01237     4.29166
      O   50    0.46845      0.99999     2.52959    0.00197     3.53155
      H   51    0.10668      0.00000     0.39273    0.00058     0.39332
      H   52    0.11615      0.00000     0.38327    0.00058     0.38385
      H   53    0.11471      0.00000     0.38469    0.00059     0.38529
      H   54    0.20836      0.00000     0.29075    0.00090     0.29164
      H   55    0.10815      0.00000     0.39076    0.00108     0.39185
      H   56    0.11911      0.00000     0.38017    0.00072     0.38089
      H   57    0.24722      0.00000     0.25161    0.00117     0.25278
      H   58    0.12188      0.00000     0.37749    0.00062     0.37812
      H   59    0.09442      0.00000     0.40466    0.00092     0.40558
      H   60    0.11221      0.00000     0.38699    0.00080     0.38779
      H   61    0.11790      0.00000     0.38125    0.00085     0.38210
      H   62    0.10940      0.00000     0.38988    0.00072     0.39060
      H   63    0.11520      0.00000     0.38394    0.00085     0.38480
      H   64    0.10171      0.00000     0.39746    0.00083     0.39829
      H   65    0.11685      0.00000     0.38237    0.00077     0.38315
      H   66    0.24969      0.00000     0.24923    0.00108     0.25031
      H   67    0.11366      0.00000     0.38555    0.00079     0.38634
      H   68    0.10867      0.00000     0.39070    0.00064     0.39133
      H   69    0.11341      0.00000     0.38584    0.00075     0.38659
      H   70    0.11345      0.00000     0.38523    0.00132     0.38655
      H   71    0.11346      0.00000     0.38573    0.00080     0.38654
      H   72    0.10783      0.00000     0.39132    0.00085     0.39217
      H   73    0.11026      0.00000     0.38917    0.00057     0.38974
      H   74    0.10526      0.00000     0.39308    0.00166     0.39474
      H   75    0.10710      0.00000     0.39137    0.00153     0.39290
      H   76    0.10356      0.00000     0.39586    0.00058     0.39644
      H   77    0.11098      0.00000     0.38828    0.00073     0.38902
      H   78    0.11543      0.00000     0.38369    0.00088     0.38457
      H   79    0.10356      0.00000     0.39542    0.00102     0.39644
      H   80    0.09991      0.00000     0.39874    0.00135     0.40009
      H   81    0.09817      0.00000     0.40076    0.00106     0.40183
      H   82    0.10905      0.00000     0.39036    0.00059     0.39095
      H   83    0.10926      0.00000     0.38997    0.00077     0.39074
      H   84    0.11875      0.00000     0.38045    0.00080     0.38125
      H   85    0.10390      0.00000     0.39427    0.00183     0.39610
      H   86    0.10592      0.00000     0.39332    0.00076     0.39408
      H   87    0.09517      0.00000     0.40401    0.00082     0.40483
      H   88    0.10176      0.00000     0.39759    0.00065     0.39824
 =======================================================================
   * Total *    2.00000     57.97499   126.45252    0.57248   185.00000

 Normal termination of Gaussian 16 at Sat Oct  1 01:56:06 2022.
