 Gaussian 16, Revision A.03,
 Gaussian 16:  ES64L-G16RevA.03 25-Dec-2016

 ---------------------------------------------------------------------
 # polar def2tzvp empiricaldispersion=gd3bj int=grid=ultrafine pbe1pbe
 ---------------------------------------------------------------------

 ---------
 1flp_II_S
 ---------
 Symbolic Z-matrix:
 Charge =  0 Multiplicity = 1

                         Standard orientation:
 ---------------------------------------------------------------------
 Center     Atomic      Atomic             Coordinates (Angstroms)
 Number     Number       Type             X           Y           Z
 ---------------------------------------------------------------------
      1          6           0       -1.658487    0.764350    5.244769
      2          6           0       -1.351416    0.127554    3.882238
      3          7           0       -0.898732   -1.192430    3.741803
      4          6           0       -1.341516    0.742637    2.661397
      5          6           0       -0.708107   -1.411119    2.437720
      6          7           0       -0.943675   -0.239658    1.783404
      7         26           0       -0.711074    0.070313   -0.492862
      8          6           0        2.587567   -0.725050   -0.294227
      9          6           0       -1.496083   -3.222484   -1.198377
     10          6           0       -4.039211    0.799910   -0.469878
     11          6           0       -0.021958    3.337969   -0.065969
     12          7           0        0.265188   -1.580385   -0.593591
     13          6           0        1.660629   -1.763427   -0.517861
     14          6           0        2.010440   -3.194017   -0.555216
     15          6           0        0.880496   -3.880261   -0.838230
     16          6           0       -0.182884   -2.885797   -0.834788
     17          6           0        0.756578   -5.405617   -1.021447
     18          6           0        3.397108   -3.782379   -0.249738
     19          6           0        3.520542   -4.305183    1.209656
     20          6           0        3.739659   -3.174245    2.127743
     21          8           0        4.826518   -2.561116    2.060590
     22          8           0        2.784596   -2.737189    2.737958
     23          7           0       -2.481405   -0.998169   -0.906046
     24          6           0       -2.552831   -2.329494   -1.207899
     25          6           0       -3.953737   -2.692267   -1.377834
     26          6           0       -4.681874   -1.584546   -1.115669
     27          6           0       -3.737985   -0.511207   -0.758917
     28          6           0       -4.303498   -4.146781   -1.822291
     29          6           0       -6.156567   -1.260128   -1.024828
     30          6           0       -7.210640   -2.115604   -1.153340
     31          7           0       -1.742320    1.663038   -0.421979
     32          6           0       -3.130645    1.843611   -0.314910
     33          6           0       -3.584588    3.235976   -0.130515
     34          6           0       -2.431565    3.938097   -0.057860
     35          6           0       -1.364615    2.966095   -0.165952
     36          6           0       -5.011734    3.734628   -0.170420
     37          6           0       -2.154446    5.453895    0.108149
     38          6           0       -3.079893    6.251704    0.694338
     39          7           0        0.939329    1.097838   -0.290838
     40          6           0        1.030919    2.466197   -0.106645
     41          6           0        2.422477    2.883839   -0.020770
     42          6           0        3.158464    1.760440   -0.045813
     43          6           0        2.247297    0.618378   -0.250324
     44          6           0        2.871594    4.367787    0.023190
     45          6           0        4.690819    1.727977   -0.165373
     46          6           0        5.163124    2.116738   -1.586483
     47          6           0        6.661094    2.067283   -1.712285
     48          8           0        7.188069    0.967418   -1.916709
     49          8           0        7.320270    3.068497   -1.406258
     50          8           0       -0.564035    0.338518   -2.751875
     51          1           0       -1.437921    0.064394    6.023430
     52          1           0       -1.057983    1.640718    5.372341
     53          1           0       -2.693602    1.031822    5.288301
     54          1           0       -0.746767   -1.848512    4.481034
     55          1           0       -0.422007   -2.339021    1.988227
     56          1           0       -1.587853    1.759747    2.438451
     57          1           0        1.995810   -3.274109    2.843471
     58          1           0        4.346421   -4.982240    1.276117
     59          1           0        2.620078   -4.814948    1.482060
     60          1           0        3.583805   -4.592646   -0.923171
     61          1           0        4.135685   -3.024536   -0.408099
     62          1           0        5.037070    0.740740    0.059067
     63          1           0        5.110112    2.413651    0.540987
     64          1           0        4.731922    1.439614   -2.293921
     65          1           0        4.828078    3.109101   -1.805256
     66          1           0        6.737264    0.311525   -2.453532
     67          1           0        3.066238    4.711133   -0.971359
     68          1           0        2.096713    4.962145    0.460451
     69          1           0        3.761658    4.453796    0.610803
     70          1           0        3.614331   -0.989264   -0.149845
     71          1           0        1.438345   -5.730346   -1.779500
     72          1           0        0.988951   -5.895679   -0.099091
     73          1           0       -0.243586   -5.649749   -1.312942
     74          1           0       -1.692409   -4.234084   -1.486511
     75          1           0        0.198364    4.378520    0.050699
     76          1           0       -3.400647   -4.703279   -1.963956
     77          1           0       -4.897738   -4.617340   -1.067073
     78          1           0       -4.851917   -4.116986   -2.740576
     79          1           0       -7.821945   -2.083329   -2.030931
     80          1           0       -7.426449   -2.819158   -0.376592
     81          1           0       -6.402220   -0.235773   -0.837075
     82          1           0       -5.682024    2.903281   -0.103542
     83          1           0       -5.181371    4.396686    0.652868
     84          1           0       -5.181570    4.256735   -1.088821
     85          1           0       -5.074940    1.041542   -0.352489
     86          1           0       -1.232437    5.870484   -0.240066
     87          1           0       -3.960658    5.822693    1.124572
     88          1           0       -2.929815    7.310625    0.726929
     89          1           0       -0.170102   -0.354625   -3.286636
     90          1           0        0.013803    1.105108   -2.745380
 ---------------------------------------------------------------------

 SCF Done:  E(RPBE1PBE) =  -3438.59654248     A.U. after   26 cycles

 The electronic state is 1-A.
 Alpha  occ. eigenvalues -- -256.32214 -30.08998 -25.91882 -25.91456 -25.91369
 Alpha  occ. eigenvalues --  -19.28173 -19.26448 -19.23054 -19.17032 -19.16540
 Alpha  occ. eigenvalues --  -14.46414 -14.40005 -14.38465 -14.38285 -14.37750
 Alpha  occ. eigenvalues --  -14.36874 -10.34817 -10.33943 -10.29690 -10.27613
 Alpha  occ. eigenvalues --  -10.25587 -10.25413 -10.25262 -10.25118 -10.24820
 Alpha  occ. eigenvalues --  -10.24731 -10.24333 -10.24333 -10.24235 -10.24218
 Alpha  occ. eigenvalues --  -10.24163 -10.24013 -10.23679 -10.23314 -10.23285
 Alpha  occ. eigenvalues --  -10.23222 -10.22976 -10.22948 -10.22847 -10.22847
 Alpha  occ. eigenvalues --  -10.22844 -10.22658 -10.22651 -10.22301 -10.22230
 Alpha  occ. eigenvalues --  -10.22225 -10.22213 -10.21969 -10.21660 -10.21537
 Alpha  occ. eigenvalues --  -10.21438 -10.21291 -10.21241 -10.20294  -3.43783
 Alpha  occ. eigenvalues --   -2.19855  -2.19172  -2.18871  -1.19861  -1.17438
 Alpha  occ. eigenvalues --   -1.06249  -1.06224  -1.02751  -1.02379  -0.97791
 Alpha  occ. eigenvalues --   -0.96826  -0.96523  -0.95551  -0.90942  -0.84450
 Alpha  occ. eigenvalues --   -0.83433  -0.83203  -0.82911  -0.81492  -0.81314
 Alpha  occ. eigenvalues --   -0.81042  -0.80775  -0.79606  -0.78450  -0.77570
 Alpha  occ. eigenvalues --   -0.76481  -0.75324  -0.74092  -0.73113  -0.72829
 Alpha  occ. eigenvalues --   -0.72336  -0.71380  -0.71096  -0.69505  -0.69198
 Alpha  occ. eigenvalues --   -0.68390  -0.66889  -0.65660  -0.65293  -0.65086
 Alpha  occ. eigenvalues --   -0.62988  -0.61290  -0.60450  -0.59156  -0.57812
 Alpha  occ. eigenvalues --   -0.57620  -0.57020  -0.56287  -0.55157  -0.54369
 Alpha  occ. eigenvalues --   -0.54328  -0.54043  -0.53087  -0.52708  -0.51527
 Alpha  occ. eigenvalues --   -0.51400  -0.51194  -0.50372  -0.49938  -0.49110
 Alpha  occ. eigenvalues --   -0.49098  -0.48897  -0.48298  -0.48007  -0.47748
 Alpha  occ. eigenvalues --   -0.46794  -0.46267  -0.46063  -0.45699  -0.44993
 Alpha  occ. eigenvalues --   -0.44848  -0.44747  -0.44550  -0.44301  -0.44004
 Alpha  occ. eigenvalues --   -0.43822  -0.43627  -0.43560  -0.43329  -0.43169
 Alpha  occ. eigenvalues --   -0.42996  -0.42866  -0.42768  -0.42555  -0.42383
 Alpha  occ. eigenvalues --   -0.42195  -0.41711  -0.41653  -0.41277  -0.40752
 Alpha  occ. eigenvalues --   -0.40458  -0.39958  -0.39825  -0.39444  -0.39250
 Alpha  occ. eigenvalues --   -0.38953  -0.38428  -0.38339  -0.38109  -0.37933
 Alpha  occ. eigenvalues --   -0.37542  -0.37520  -0.36807  -0.36432  -0.36098
 Alpha  occ. eigenvalues --   -0.35701  -0.35349  -0.34796  -0.34237  -0.33094
 Alpha  occ. eigenvalues --   -0.32761  -0.32553  -0.32195  -0.31934  -0.31879
 Alpha  occ. eigenvalues --   -0.31629  -0.30733  -0.29715  -0.28559  -0.27896
 Alpha  occ. eigenvalues --   -0.27651  -0.26873  -0.26689  -0.26406  -0.25289
 Alpha  occ. eigenvalues --   -0.24822  -0.24272  -0.21194  -0.20464  -0.19571
 Alpha  occ. eigenvalues --   -0.19413  -0.19146  -0.17317
 Alpha virt. eigenvalues --   -0.08130  -0.07346  -0.05093  -0.01808  -0.01660
 Alpha virt. eigenvalues --   -0.00694   0.00237   0.00703   0.00799   0.01133
 Alpha virt. eigenvalues --    0.02030   0.02430   0.02728   0.03527   0.04186

 Mulliken charges:
               1
     1  C   -0.367493
     2  C    0.132978
     3  N   -0.217910
     4  C   -0.146189
     5  C    0.022015
     6  N   -0.136241
     7  Fe  -0.146621
     8  C   -0.441764
     9  C   -0.372749
    10  C   -0.439567
    11  C   -0.433129
    12  N    0.015045
    13  C    0.241685
    14  C   -0.175745
    15  C   -0.045328
    16  C    0.145194
    17  C   -0.383455
    18  C   -0.163058
    19  C   -0.231278
    20  C    0.251373
    21  O   -0.387305
    22  O   -0.232531
    23  N   -0.084595
    24  C    0.203554
    25  C   -0.063116
    26  C   -0.044924
    27  C    0.276469
    28  C   -0.340610
    29  C   -0.152520
    30  C   -0.399013
    31  N    0.002751
    32  C    0.328076
    33  C   -0.084189
    34  C   -0.005345
    35  C    0.232570
    36  C   -0.344026
    37  C   -0.216490
    38  C   -0.250707
    39  N   -0.042839
    40  C    0.265311
    41  C   -0.122476
    42  C    0.010692
    43  C    0.187625
    44  C   -0.395332
    45  C   -0.292543
    46  C   -0.279935
    47  C    0.322115
    48  O   -0.285420
    49  O   -0.366340
    50  O   -0.544752
    51  H    0.115365
    52  H    0.150908
    53  H    0.148393
    54  H    0.231271
    55  H    0.147653
    56  H    0.161457
    57  H    0.327638
    58  H    0.127992
    59  H    0.097254
    60  H    0.119920
    61  H    0.131128
    62  H    0.136653
    63  H    0.139905
    64  H    0.115935
    65  H    0.118280
    66  H    0.341110
    67  H    0.142570
    68  H    0.133486
    69  H    0.145648
    70  H    0.128394
    71  H    0.139861
    72  H    0.123052
    73  H    0.128818
    74  H    0.073833
    75  H    0.074607
    76  H    0.115187
    77  H    0.134546
    78  H    0.132641
    79  H    0.142142
    80  H    0.135176
    81  H    0.119285
    82  H    0.123359
    83  H    0.115691
    84  H    0.148818
    85  H    0.075058
    86  H    0.122684
    87  H    0.113863
    88  H    0.128216
    89  H    0.339606
    90  H    0.350682
 Sum of Mulliken charges =  -0.00000

 Dipole moment (field-independent basis, Debye):
    X=             -4.8617    Y=             -5.7516    Z=              2.4597  Tot=              7.9226
 Quadrupole moment (field-independent basis, Debye-Ang):
   XX=           -370.7570   YY=           -269.7932   ZZ=           -263.4743
   XY=            -31.8691   XZ=            -25.0025   YZ=             -3.7705

  Exact polarizability: 878.052  14.557 764.859  25.441  61.705 365.901
 Approx polarizability:1547.630   7.9601394.278  44.330 135.175 573.893

 Normal termination of Gaussian 16 at Fri Oct 21 14:25:39 2022.
