 Gaussian 16, Revision A.03,
 Gaussian 16:  ES64L-G16RevA.03 25-Dec-2016

 ----------------------------------------------------------------------
 # PBE1PBE/def2TZVP empiricaldispersion=GD3BJ scf=maxcycle=999 geom=che
 ck pop=nbo
 ----------------------------------------------------------------------

 ----------
 1flp_III_D
 ----------
 Structure from the checkpoint file:  "1flp_III_D.chk"
 Charge =  1 Multiplicity = 2

                         Standard orientation:
 ---------------------------------------------------------------------
 Center     Atomic      Atomic             Coordinates (Angstroms)
 Number     Number       Type             X           Y           Z
 ---------------------------------------------------------------------
      1          6           0       -1.659744    0.771539    5.227612
      2          6           0       -1.352433    0.133387    3.865769
      3          7           0       -0.899663   -1.186716    3.726733
      4          6           0       -1.342376    0.747241    2.644311
      5          6           0       -0.708827   -1.406708    2.422900
      6          7           0       -0.944352   -0.235918    1.767369
      7         26           0       -0.711417    0.071772   -0.509172
      8          6           0        2.587232   -0.723228   -0.309231
      9          6           0       -1.496157   -3.221771   -1.211492
     10          6           0       -4.039593    0.801228   -0.487433
     11          6           0       -0.022526    3.339890   -0.085464
     12          7           0        0.264941   -1.578979   -0.608089
     13          6           0        1.660379   -1.761876   -0.531961
     14          6           0        2.010266   -3.192485   -0.567822
     15          6           0        0.880399   -3.879069   -0.850318
     16          6           0       -0.183031   -2.884655   -0.848041
     17          6           0        0.756584   -5.404615   -1.032018
     18          6           0        3.396915   -3.780472   -0.261539
     19          6           0        3.520151   -4.301800    1.198400
     20          6           0        3.739072   -3.169927    2.115382
     21          8           0        4.825911   -2.556813    2.047777
     22          8           0        2.783894   -2.732304    2.725009
     23          7           0       -2.481632   -0.997212   -0.921551
     24          6           0       -2.552947   -2.328843   -1.222075
     25          6           0       -3.953809   -2.691857   -1.391859
     26          6           0       -4.682041   -1.583908   -1.130921
     27          6           0       -3.738259   -0.510163   -0.775106
     28          6           0       -4.303431   -4.146835   -1.834905
     29          6           0       -6.156764   -1.259471   -1.040633
     30          6           0       -7.210775   -2.115128   -1.168446
     31          7           0       -1.742752    1.664517   -0.440051
     32          6           0       -3.131103    1.845130   -0.333377
     33          6           0       -3.585141    3.237657   -0.150454
     34          6           0       -2.432164    3.939907   -0.078328
     35          6           0       -1.365150    2.967850   -0.185278
     36          6           0       -5.012306    3.736200   -0.191080
     37          6           0       -2.155144    5.455886    0.086197
     38          6           0       -3.080720    6.254239    0.671440
     39          7           0        0.938904    1.099581   -0.307930
     40          6           0        1.030399    2.468129   -0.125100
     41          6           0        2.421924    2.885926   -0.039432
     42          6           0        3.157970    1.762538   -0.063232
     43          6           0        2.246890    0.620226   -0.266732
     44          6           0        2.870962    4.369940    0.003102
     45          6           0        4.690344    1.730030   -0.182524
     46          6           0        5.162848    2.117383   -1.603952
     47          6           0        6.660840    2.067875   -1.729474
     48          8           0        7.187900    0.967831   -1.932710
     49          8           0        7.319921    3.069429   -1.424354
     50          8           0       -0.564045    0.337710   -2.768431
     51          1           0       -1.439264    0.072379    6.007011
     52          1           0       -1.059303    1.648065    5.354394
     53          1           0       -2.694879    1.039005    5.270715
     54          1           0       -0.747779   -1.842046    4.466648
     55          1           0       -0.422613   -2.335048    1.974386
     56          1           0       -1.588729    1.764114    2.420303
     57          1           0        1.995118   -3.269156    2.830942
     58          1           0        4.346053   -4.978750    1.265669
     59          1           0        2.619670   -4.811335    1.471178
     60          1           0        3.583756   -4.591407   -0.934127
     61          1           0        4.135480   -3.022753   -0.420549
     62          1           0        5.036609    0.743036    0.042963
     63          1           0        5.109496    2.416435    0.523210
     64          1           0        4.731788    1.439526   -2.310774
     65          1           0        4.827788    3.109508   -1.823775
     66          1           0        6.737210    0.311375   -2.468942
     67          1           0        3.065741    4.712294   -0.991762
     68          1           0        2.095984    4.964700    0.439646
     69          1           0        3.760931    4.456583    0.590764
     70          1           0        3.613987   -0.987246   -0.164425
     71          1           0        1.438483   -5.730074   -1.789639
     72          1           0        0.988839   -5.893737   -0.109133
     73          1           0       -0.243524   -5.649089   -1.323421
     74          1           0       -1.692390   -4.233671   -1.498637
     75          1           0        0.197726    4.380569    0.030190
     76          1           0       -3.400531   -4.703431   -1.975871
     77          1           0       -4.897764   -4.616662   -1.079306
     78          1           0       -4.851711   -4.117990   -2.753304
     79          1           0       -7.821947   -2.083766   -2.046163
     80          1           0       -7.426669   -2.817909   -0.391022
     81          1           0       -6.402495   -0.234939   -0.853950
     82          1           0       -5.682566    2.904887   -0.123467
     83          1           0       -5.182101    4.399077    0.631515
     84          1           0       -5.182026    4.257373   -1.110032
     85          1           0       -5.075352    1.042928   -0.370446
     86          1           0       -1.233102    5.872169   -0.262296
     87          1           0       -3.961531    5.825618    1.101971
     88          1           0       -2.930700    7.313200    0.702988
 ---------------------------------------------------------------------

 SCF Done:  E(UPBE1PBE) =  -3437.06083153     A.U. after   95 cycles

 Alpha virt. eigenvalues --    0.58538   0.59178   0.59446   0.59521   0.59637
 Alpha virt. eigenvalues --    0.59667   0.59846   0.60220   0.60448   0.60998
 Alpha virt. eigenvalues --    0.61146   0.61654   0.61836   0.62217   0.62580

  Beta  occ. eigenvalues -- -256.49885 -30.26474 -26.09483 -26.09132 -26.08719
  Beta  occ. eigenvalues --  -19.36592 -19.32895 -19.25230 -19.24179 -19.23120
  Beta  occ. eigenvalues --  -14.56255 -14.50809 -14.50466 -14.50398 -14.50219
  Beta  occ. eigenvalues --  -14.49538 -10.43093 -10.40674 -10.40068 -10.38486
  Beta  occ. eigenvalues --  -10.38386 -10.38374 -10.38206 -10.37993 -10.37745
  Beta  occ. eigenvalues --  -10.37725 -10.37473 -10.37452 -10.36783 -10.36684
  Beta  occ. eigenvalues --  -10.35230 -10.35199 -10.34956 -10.34847 -10.34708
  Beta  occ. eigenvalues --  -10.34567 -10.34375 -10.33841 -10.33750 -10.33507
  Beta  occ. eigenvalues --  -10.33429 -10.33415 -10.33222 -10.33073 -10.32578
  Beta  occ. eigenvalues --  -10.32437 -10.32349 -10.32139 -10.32125 -10.31659
  Beta  occ. eigenvalues --  -10.31623 -10.31519 -10.30566 -10.30248  -3.59500
  Beta  occ. eigenvalues --   -2.35377  -2.34399  -2.34224  -1.28282  -1.23927
  Beta  occ. eigenvalues --   -1.16324  -1.10947  -1.10665  -1.09294  -1.08915
  Beta  occ. eigenvalues --   -1.08581  -1.07525  -1.01288  -0.95762  -0.94962
  Beta  occ. eigenvalues --   -0.94456  -0.94054  -0.92909  -0.92674  -0.92261
  Beta  occ. eigenvalues --   -0.90987  -0.90166  -0.89817  -0.88031  -0.87450
  Beta  occ. eigenvalues --   -0.87106  -0.86771  -0.85249  -0.83448  -0.83281
  Beta  occ. eigenvalues --   -0.82169  -0.82116  -0.80626  -0.79866  -0.78304
  Beta  occ. eigenvalues --   -0.77571  -0.76796  -0.76316  -0.75646  -0.74610
  Beta  occ. eigenvalues --   -0.74330  -0.73020  -0.71413  -0.70945  -0.69485
  Beta  occ. eigenvalues --   -0.67301  -0.66988  -0.66212  -0.66018  -0.65536
  Beta  occ. eigenvalues --   -0.64271  -0.63779  -0.63029  -0.62684  -0.61656
  Beta  occ. eigenvalues --   -0.60940  -0.60206  -0.60118  -0.59375  -0.58929
  Beta  occ. eigenvalues --   -0.58427  -0.58105  -0.57885  -0.57683  -0.56986
  Beta  occ. eigenvalues --   -0.56839  -0.56511  -0.56164  -0.56133  -0.55980
  Beta  occ. eigenvalues --   -0.55607  -0.55141  -0.54953  -0.54484  -0.54292
  Beta  occ. eigenvalues --   -0.54095  -0.53890  -0.53222  -0.52979  -0.52650
  Beta  occ. eigenvalues --   -0.52569  -0.52371  -0.52320  -0.52030  -0.51978
  Beta  occ. eigenvalues --   -0.51591  -0.51470  -0.51371  -0.51250  -0.51058
  Beta  occ. eigenvalues --   -0.50458  -0.50374  -0.49770  -0.49545  -0.49346
  Beta  occ. eigenvalues --   -0.48819  -0.48685  -0.48182  -0.47732  -0.47510
  Beta  occ. eigenvalues --   -0.46897  -0.46489  -0.45754  -0.45568  -0.45378
  Beta  occ. eigenvalues --   -0.44923  -0.44653  -0.44327  -0.44254  -0.42857
  Beta  occ. eigenvalues --   -0.42668  -0.42246  -0.41261  -0.40769  -0.40445
  Beta  occ. eigenvalues --   -0.39831  -0.38921  -0.38700  -0.38396  -0.37146
  Beta  occ. eigenvalues --   -0.36094  -0.35724  -0.35419  -0.34952  -0.34840
  Beta  occ. eigenvalues --   -0.33944  -0.33074  -0.32218  -0.31296  -0.30546
  Beta  occ. eigenvalues --   -0.29954
  Beta virt. eigenvalues --   -0.20762  -0.19913  -0.18053  -0.16324  -0.14971
  Beta virt. eigenvalues --   -0.13429  -0.12356  -0.10590  -0.10260  -0.09590
  Beta virt. eigenvalues --   -0.09377  -0.07908  -0.07465  -0.06405  -0.06004

 Mulliken charges and spin densities:
               1          2
     1  C   -0.356750  -0.000321
     2  C    0.119803  -0.001321
     3  N   -0.207045   0.000164
     4  C   -0.139367   0.001722
     5  C    0.026493   0.002943
     6  N   -0.144425  -0.036748
     7  Fe  -0.068415   0.750643
     8  C   -0.452812   0.077693
     9  C   -0.373957   0.093240
    10  C   -0.430669   0.053875
    11  C   -0.443352   0.063198
    12  N    0.039661   0.032190
    13  C    0.310638  -0.124311
    14  C   -0.169157  -0.018807
    15  C   -0.040295   0.003972
    16  C    0.182256  -0.135911
    17  C   -0.366573   0.001639
    18  C   -0.154815   0.002720
    19  C   -0.250301  -0.001001
    20  C    0.254242  -0.000938
    21  O   -0.371590  -0.000228
    22  O   -0.236960   0.000122
    23  N   -0.023091   0.039929
    24  C    0.236918  -0.167205
    25  C   -0.056848   0.260240
    26  C   -0.052036  -0.235612
    27  C    0.301249  -0.099361
    28  C   -0.341094  -0.009692
    29  C   -0.070685   0.491323
    30  C   -0.286181  -0.961662
    31  N    0.047434   0.023791
    32  C    0.326939  -0.104685
    33  C   -0.085891  -0.019149
    34  C    0.005195   0.008022
    35  C    0.259476  -0.127638
    36  C   -0.335677   0.001783
    37  C   -0.207219   0.004820
    38  C   -0.229511  -0.010977
    39  N    0.044353   0.023693
    40  C    0.323106  -0.113415
    41  C   -0.122736  -0.000184
    42  C    0.010985  -0.006030
    43  C    0.250655  -0.118583
    44  C   -0.379284   0.000837
    45  C   -0.287709   0.001520
    46  C   -0.289602  -0.001015
    47  C    0.327918  -0.000027
    48  O   -0.280957  -0.000016
    49  O   -0.351826  -0.000581
    50  O   -0.358959   1.316899
    51  H    0.129709   0.000002
    52  H    0.159340  -0.000001
    53  H    0.154568  -0.000009
    54  H    0.247140  -0.000661
    55  H    0.152355  -0.000221
    56  H    0.164607  -0.000279
    57  H    0.327498   0.000045
    58  H    0.151649  -0.000104
    59  H    0.105201   0.000057
    60  H    0.140235  -0.000939
    61  H    0.144037  -0.000066
    62  H    0.141236   0.000025
    63  H    0.153477  -0.000670
    64  H    0.131824   0.000053
    65  H    0.125402  -0.000007
    66  H    0.342199   0.000010
    67  H    0.167370  -0.000831
    68  H    0.137640   0.000009
    69  H    0.161706  -0.000409
    70  H    0.149689  -0.003235
    71  H    0.162338  -0.000496
    72  H    0.139776  -0.000741
    73  H    0.134833   0.000012
    74  H    0.091429  -0.004219
    75  H    0.096410  -0.002419
    76  H    0.134645  -0.000739
    77  H    0.146718   0.006163
    78  H    0.156652   0.006957
    79  H    0.185114   0.057512
    80  H    0.176942   0.055947
    81  H    0.153178  -0.067790
    82  H    0.122715  -0.000050
    83  H    0.133332  -0.001105
    84  H    0.172809  -0.001708
    85  H    0.084801  -0.002389
    86  H    0.142200  -0.000229
    87  H    0.123714   0.000477
    88  H    0.153980   0.000491
 Sum of Mulliken charges =   1.00000   1.00000

 Dipole moment (field-independent basis, Debye):
    X=            -15.2864    Y=             -7.5435    Z=              5.9221  Tot=             18.0457
 Quadrupole moment (field-independent basis, Debye-Ang):
   XX=           -246.5134   YY=           -198.5719   ZZ=           -263.9754
   XY=            -21.7314   XZ=            -12.6238   YZ=              5.9392

 Summary of Natural Population Analysis:

                                       Natural Population
                Natural  -----------------------------------------------
    Atom  No    Charge         Core      Valence    Rydberg      Total
 -----------------------------------------------------------------------
      C    1   -0.32081      0.99969     2.31809    0.00303     3.32081
      C    2    0.06467      0.99955     1.92661    0.00917     2.93533
      N    3   -0.24106      0.99969     2.73140    0.00997     3.74106
      C    4   -0.03926      0.99945     2.03066    0.00914     3.03926
      C    5    0.08821      0.99971     1.90238    0.00970     2.91179
      N    6   -0.21976      0.99974     2.69799    0.02203     3.71976
     Fe    7    0.60365      8.99456     3.38012    0.02168    12.39635
      C    8   -0.09973      0.99948     2.09165    0.00860     3.09973
      C    9   -0.07673      0.99948     2.06941    0.00783     3.07673
      C   10   -0.10650      0.99948     2.09858    0.00844     3.10650
      C   11   -0.09846      0.99948     2.09091    0.00807     3.09846
      N   12   -0.19421      0.99966     2.67211    0.02243     3.69421
      C   13    0.06118      0.99955     1.92900    0.01027     2.93882
      C   14   -0.02610      0.99941     2.01726    0.00943     3.02610
      C   15   -0.00696      0.99938     1.99904    0.00854     3.00696
      C   16    0.03981      0.99951     1.95001    0.01066     2.96019
      C   17   -0.31718      0.99969     2.31378    0.00371     3.31718
      C   18   -0.20722      0.99965     2.20072    0.00685     3.20722
      C   19   -0.25226      0.99962     2.24390    0.00874     3.25226
      C   20    0.37553      0.99969     1.60688    0.01790     2.62447
      O   21   -0.29751      0.99989     3.28563    0.01198     4.29751
      O   22   -0.30356      0.99978     3.28672    0.01705     4.30356
      N   23   -0.17288      0.99966     2.64961    0.02360     3.67288
      C   24    0.02566      0.99954     1.96437    0.01044     2.97434
      C   25    0.12497      0.99939     1.86699    0.00866     2.87503
      C   26   -0.14642      0.99941     2.13714    0.00987     3.14642
      C   27    0.06965      0.99955     1.92017    0.01063     2.93035
      C   28   -0.31896      0.99969     2.31579    0.00348     3.31896
      C   29    0.16936      0.99963     1.82257    0.00845     2.83064
      C   30   -0.60080      0.99966     2.59021    0.01094     3.60080
      N   31   -0.18826      0.99965     2.66550    0.02312     3.68826
      C   32    0.06738      0.99952     1.92269    0.01041     2.93262
      C   33   -0.00951      0.99941     2.00151    0.00859     3.00951
      C   34   -0.02987      0.99936     2.02016    0.01035     3.02987
      C   35    0.05951      0.99953     1.93074    0.01023     2.94049
      C   36   -0.31647      0.99969     2.31031    0.00647     3.31647
      C   37   -0.10653      0.99960     2.09829    0.00864     3.10653
      C   38   -0.17112      0.99964     2.16402    0.00746     3.17112
      N   39   -0.18445      0.99965     2.66287    0.02193     3.68445
      C   40    0.05912      0.99950     1.93122    0.01016     2.94088
      C   41    0.00299      0.99938     1.98948    0.00815     2.99701
      C   42   -0.01116      0.99939     2.00303    0.00874     3.01116
      C   43    0.06578      0.99954     1.92443    0.01025     2.93422
      C   44   -0.31911      0.99969     2.31576    0.00366     3.31911
      C   45   -0.20765      0.99966     2.20151    0.00648     3.20765
      C   46   -0.25059      0.99963     2.24226    0.00870     3.25059
      C   47    0.37650      0.99973     1.60586    0.01790     2.62350
      O   48   -0.31241      0.99980     3.29649    0.01612     4.31241
      O   49   -0.28402      0.99989     3.27170    0.01242     4.28402
      O   50    0.50327      0.99999     2.49485    0.00189     3.49673
      H   51    0.11086      0.00000     0.38859    0.00056     0.38914
      H   52    0.11919      0.00000     0.38026    0.00055     0.38081
      H   53    0.11734      0.00000     0.38210    0.00056     0.38266
      H   54    0.21280      0.00000     0.28635    0.00085     0.28720
      H   55    0.10762      0.00000     0.39129    0.00109     0.39238
      H   56    0.11895      0.00000     0.38033    0.00072     0.38105
      H   57    0.24674      0.00000     0.25211    0.00116     0.25326
      H   58    0.12762      0.00000     0.37180    0.00057     0.37238
      H   59    0.09459      0.00000     0.40451    0.00090     0.40541
      H   60    0.11704      0.00000     0.38220    0.00076     0.38296
      H   61    0.11959      0.00000     0.37958    0.00083     0.38041
      H   62    0.11060      0.00000     0.38868    0.00072     0.38940
      H   63    0.11963      0.00000     0.37952    0.00084     0.38037
      H   64    0.10053      0.00000     0.39864    0.00083     0.39947
      H   65    0.11777      0.00000     0.38148    0.00075     0.38223
      H   66    0.24938      0.00000     0.24954    0.00108     0.25062
      H   67    0.11826      0.00000     0.38100    0.00074     0.38174
      H   68    0.10996      0.00000     0.38944    0.00061     0.39004
      H   69    0.11899      0.00000     0.38031    0.00071     0.38101
      H   70    0.11920      0.00000     0.37950    0.00131     0.38080
      H   71    0.11926      0.00000     0.38001    0.00073     0.38074
      H   72    0.11319      0.00000     0.38602    0.00079     0.38681
      H   73    0.11113      0.00000     0.38832    0.00055     0.38887
      H   74    0.10988      0.00000     0.38855    0.00157     0.39012
      H   75    0.11239      0.00000     0.38610    0.00151     0.38761
      H   76    0.10836      0.00000     0.39109    0.00055     0.39164
      H   77    0.11801      0.00000     0.38133    0.00066     0.38199
      H   78    0.12281      0.00000     0.37654    0.00065     0.37719
      H   79    0.13395      0.00000     0.36536    0.00069     0.36605
      H   80    0.13096      0.00000     0.36825    0.00079     0.36904
      H   81    0.07816      0.00000     0.42076    0.00108     0.42184
      H   82    0.10865      0.00000     0.39094    0.00041     0.39135
      H   83    0.11449      0.00000     0.38493    0.00059     0.38551
      H   84    0.12321      0.00000     0.37612    0.00067     0.37679
      H   85    0.10574      0.00000     0.39234    0.00191     0.39426
      H   86    0.10937      0.00000     0.38991    0.00073     0.39063
      H   87    0.09612      0.00000     0.40309    0.00079     0.40388
      H   88    0.10794      0.00000     0.39146    0.00059     0.39206
 =======================================================================
   * Total *    1.00000     57.97491   127.45074    0.57434   186.00000

 Normal termination of Gaussian 16 at Sat Oct  1 09:36:34 2022.
