 Gaussian 16, Revision A.03,
 Gaussian 16:  ES64L-G16RevA.03 25-Dec-2016

 ----------------------------------------------------------------------
 # PBE1PBE/def2TZVP empiricaldispersion=GD3BJ scf=maxcycle=999 geom=che
 ck pop=nbo
 ----------------------------------------------------------------------

 ---------
 1giw_II_Q
 ---------
 Structure from the checkpoint file:  "1giw_II_Q.chk"
 Charge =  0 Multiplicity = 5

                         Standard orientation:
 ---------------------------------------------------------------------
 Center     Atomic      Atomic             Coordinates (Angstroms)
 Number     Number       Type             X           Y           Z
 ---------------------------------------------------------------------
      1          6           0        2.528443   -2.047617    4.741988
      2          6           0        1.672587   -1.350763    3.744258
      3          7           0        0.308024   -1.457780    3.688063
      4          6           0        2.117944   -0.854803    2.551700
      5          6           0       -0.062201   -1.019609    2.480801
      6          7           0        0.985248   -0.605338    1.762921
      7          1           0        3.513208   -2.171835    4.342353
      8          1           0        2.109575   -3.007094    4.963015
      9          1           0       -0.288915   -1.952203    4.344879
     10          1           0        3.163733   -0.861097    2.257362
     11          1           0       -1.047237   -1.123663    2.074236
     12          6           0       -0.487907    3.160856   -2.880346
     13          6           0        0.753236    2.274983   -2.793670
     14         16           0        0.351412    0.576924   -2.310745
     15          6           0        1.193991   -0.437063   -3.554004
     16          1           0       -1.284767    2.713833   -2.323493
     17          1           0       -0.781974    3.263625   -3.903998
     18          1           0        1.236634    2.280849   -3.770136
     19          1           0        1.469716    2.662646   -2.074132
     20          1           0        0.887097   -0.137959   -4.559645
     21          1           0        2.272097   -0.321462   -3.434133
     22          1           0        0.917699   -1.480788   -3.411374
     23         26           0        0.851200   -0.134091   -0.114737
     24          6           0       -2.685808   -0.193822   -0.090357
     25          6           0        0.958186   -3.449554   -0.840383
     26          6           0        4.256478    0.166276   -0.228549
     27          6           0        0.660946    3.248850    0.835466
     28          7           0       -0.616053   -1.562596   -0.463388
     29          6           0       -1.979180   -1.373847   -0.370409
     30          6           0       -2.598153   -2.667103   -0.560241
     31          6           0       -1.590422   -3.574909   -0.829104
     32          6           0       -0.324064   -2.874112   -0.712721
     33          6           0       -1.806219   -5.022677   -1.224541
     34          6           0       -4.083954   -2.978856   -0.485540
     35          6           0       -4.799711   -2.544452    0.803383
     36          6           0       -5.941381   -3.475852    1.193845
     37          8           0       -7.071233   -3.229773    0.714004
     38          8           0       -5.666235   -4.430335    1.949723
     39          7           0        2.338634   -1.399639   -0.481269
     40          6           0        2.165519   -2.722756   -0.741667
     41          6           0        3.488225   -3.295029   -0.855939
     42          6           0        4.410569   -2.267734   -0.770219
     43          6           0        3.666939   -1.072159   -0.476675
     44          6           0        3.778655   -4.768237   -0.913968
     45          6           0        5.909248   -2.311193   -1.035668
     46          6           0        6.232967   -2.760997   -2.460139
     47          7           0        2.206747    1.423832    0.224648
     48          6           0        3.543850    1.284112    0.133641
     49          6           0        4.158485    2.526835    0.517627
     50          6           0        3.149390    3.354172    0.951780
     51          6           0        1.907393    2.683927    0.643660
     52          6           0        5.642271    2.789578    0.549710
     53          6           0        3.289610    4.558670    1.862947
     54          6           0        3.743899    5.839569    1.162601
     55          7           0       -0.737386    1.287959    0.283469
     56          6           0       -0.539155    2.583475    0.644273
     57          6           0       -1.827735    3.204281    0.821694
     58          6           0       -2.781397    2.247343    0.568310
     59          6           0       -2.077091    1.025002    0.219928
     60          6           0       -2.075101    4.628643    1.259981
     61          6           0       -4.279099    2.453789    0.681172
     62          6           0       -5.043527    2.171806   -0.616278
     63          6           0       -5.556165    3.401845   -1.367487
     64          8           0       -6.004668    4.394448   -0.747297
     65          8           0       -5.534963    3.299995   -2.609088
     66          1           0       -3.759515   -0.226535   -0.087202
     67          1           0        1.032060   -4.505789   -1.034615
     68          1           0        5.324717    0.274349   -0.237356
     69          1           0        0.620761    4.286706    1.109261
     70          1           0       -2.273543   -5.060240   -2.210059
     71          1           0       -0.880697   -5.595160   -1.262635
     72          1           0       -2.471265   -5.500094   -0.507947
     73          1           0       -4.575232   -2.492297   -1.323351
     74          1           0       -4.217837   -4.054553   -0.585099
     75          1           0       -4.072388   -2.546773    1.608614
     76          1           0       -5.240553   -1.553873    0.696421
     77          1           0        3.350121   -5.219196   -1.808147
     78          1           0        4.848405   -4.933969   -0.901059
     79          1           0        3.343754   -5.227528   -0.029196
     80          1           0        6.350859   -1.325813   -0.963823
     81          1           0        5.783597   -2.059247   -3.163035
     82          1           0        7.312270   -2.781775   -2.603166
     83          1           0        5.823343   -3.745913   -2.650847
     84          1           0        6.055306    2.603094   -0.441598
     85          1           0        5.856244    3.814934    0.836161
     86          1           0        6.110038    2.119024    1.269996
     87          1           0        2.322886    4.787984    2.293245
     88          1           0        2.974367    6.132744    0.449281
     89          1           0        3.862354    6.631084    1.901739
     90          1           0        4.686720    5.688731    0.641138
     91          1           0       -1.312254    5.295469    0.861168
     92          1           0       -3.034935    4.979380    0.901953
     93          1           0       -2.065661    4.675749    2.346604
     94          1           0       -4.663977    1.805481    1.467616
     95          1           0       -4.510661    3.464395    1.003036
     96          1           0       -4.385629    1.633045   -1.297540
     97          1           0       -5.893429    1.527729   -0.393954
     98          1           0       -0.266490    4.125727   -2.474270
     99          1           0        2.578062   -1.465087    5.638144
    100          1           0       -7.755124   -2.846864    1.268327
    101          1           0       -6.100415    4.360849    0.207325
 ---------------------------------------------------------------------

 SCF Done:  E(UPBE1PBE) =  -3880.54090357     A.U. after   76 cycles

 Alpha virt. eigenvalues --    1.03891   1.04108   1.04165   1.04305   1.04520
 Alpha virt. eigenvalues --    1.04574   1.05078   1.05668   1.06004   1.06174
 Alpha virt. eigenvalues --    1.06500   1.06929   1.07039   1.07283   1.07515

  Beta  occ. eigenvalues -- -256.31290 -89.02030 -30.05805 -25.90048 -25.88203
  Beta  occ. eigenvalues --  -25.87932 -19.27799 -19.26359 -19.18888 -19.17136
  Beta  occ. eigenvalues --  -14.45661 -14.40601 -14.36480 -14.35953 -14.35836
  Beta  occ. eigenvalues --  -14.35665 -10.35861 -10.35175 -10.28725 -10.26457
  Beta  occ. eigenvalues --  -10.24861 -10.24774 -10.24768 -10.24727 -10.24626
  Beta  occ. eigenvalues --  -10.24441 -10.24095 -10.24064 -10.24013 -10.23808
  Beta  occ. eigenvalues --  -10.23793 -10.23506 -10.23486 -10.23471 -10.23317
  Beta  occ. eigenvalues --  -10.23037 -10.22798 -10.22654 -10.22378 -10.22313
  Beta  occ. eigenvalues --  -10.22164 -10.22147 -10.22049 -10.22029 -10.21973
  Beta  occ. eigenvalues --  -10.21933 -10.21910 -10.21868 -10.21835 -10.21665
  Beta  occ. eigenvalues --  -10.21556 -10.21443 -10.21346 -10.21215 -10.21096
  Beta  occ. eigenvalues --  -10.20839 -10.19630  -7.99795  -5.93458  -5.93155
  Beta  occ. eigenvalues --   -5.92637  -3.38341  -2.17415  -2.11727  -2.11154
  Beta  occ. eigenvalues --   -1.17541  -1.17259  -1.06485  -1.03541  -1.02718
  Beta  occ. eigenvalues --   -0.97767  -0.96884  -0.96681  -0.95766  -0.91588
  Beta  occ. eigenvalues --   -0.83971  -0.83406  -0.82976  -0.82867  -0.81859
  Beta  occ. eigenvalues --   -0.81129  -0.80931  -0.80705  -0.80399  -0.78829
  Beta  occ. eigenvalues --   -0.78307  -0.76351  -0.75927  -0.75606  -0.75412
  Beta  occ. eigenvalues --   -0.73560  -0.72638  -0.72257  -0.71461  -0.70673
  Beta  occ. eigenvalues --   -0.69868  -0.69622  -0.68844  -0.67235  -0.66626
  Beta  occ. eigenvalues --   -0.66106  -0.65606  -0.65321  -0.64960  -0.62830
  Beta  occ. eigenvalues --   -0.61374  -0.60763  -0.59788  -0.58770  -0.58497
  Beta  occ. eigenvalues --   -0.56939  -0.56036  -0.54634  -0.54514  -0.53674
  Beta  occ. eigenvalues --   -0.52870  -0.52104  -0.51904  -0.51552  -0.51266
  Beta  occ. eigenvalues --   -0.50780  -0.50551  -0.49880  -0.48628  -0.48592
  Beta  occ. eigenvalues --   -0.48402  -0.48279  -0.48020  -0.47516  -0.46819
  Beta  occ. eigenvalues --   -0.46163  -0.45633  -0.45508  -0.45195  -0.45116
  Beta  occ. eigenvalues --   -0.44892  -0.44436  -0.44138  -0.44081  -0.43790
  Beta  occ. eigenvalues --   -0.43681  -0.43543  -0.43304  -0.43253  -0.43131
  Beta  occ. eigenvalues --   -0.42924  -0.42618  -0.42572  -0.42347  -0.42191
  Beta  occ. eigenvalues --   -0.41644  -0.41265  -0.41082  -0.40980  -0.40790
  Beta  occ. eigenvalues --   -0.40590  -0.40418  -0.40314  -0.40128  -0.39819
  Beta  occ. eigenvalues --   -0.39692  -0.39563  -0.38739  -0.38358  -0.38242
  Beta  occ. eigenvalues --   -0.38089  -0.37910  -0.37886  -0.37384  -0.36905
  Beta  occ. eigenvalues --   -0.36764  -0.36580  -0.36276  -0.35627  -0.35318
  Beta  occ. eigenvalues --   -0.35113  -0.35006  -0.34807  -0.34088  -0.33817
  Beta  occ. eigenvalues --   -0.33671  -0.33526  -0.32728  -0.32450  -0.32175
  Beta  occ. eigenvalues --   -0.31885  -0.29640  -0.28943  -0.28655  -0.28338
  Beta  occ. eigenvalues --   -0.28128  -0.27935  -0.26996  -0.25645  -0.25088
  Beta  occ. eigenvalues --   -0.23992  -0.23642  -0.23193  -0.22919  -0.19323
  Beta  occ. eigenvalues --   -0.18991  -0.17451  -0.17179
  Beta virt. eigenvalues --   -0.07984  -0.07691  -0.05789  -0.04626  -0.02298
  Beta virt. eigenvalues --   -0.00504   0.00123   0.00792   0.01092   0.01342
  Beta virt. eigenvalues --    0.01776   0.02435   0.03225   0.03675   0.03738

 Mulliken charges and spin densities:
               1          2
     1  C   -0.376182  -0.000541
     2  C    0.181244   0.002921
     3  N   -0.235230  -0.001503
     4  C   -0.216650  -0.007222
     5  C    0.012846  -0.013850
     6  N    0.077926  -0.035059
     7  H    0.145781  -0.000003
     8  H    0.124606   0.000039
     9  H    0.248862  -0.000093
    10  H    0.158909   0.000450
    11  H    0.181021   0.000970
    12  C   -0.348225  -0.000305
    13  C   -0.183002  -0.000171
    14  S    0.036502  -0.034765
    15  C   -0.409249   0.000279
    16  H    0.155054  -0.000066
    17  H    0.124819  -0.000053
    18  H    0.128476  -0.000640
    19  H    0.140845  -0.000792
    20  H    0.151431  -0.001647
    21  H    0.143312  -0.000589
    22  H    0.162636   0.000055
    23  Fe  -0.163948   2.072414
    24  C   -0.462816  -0.025314
    25  C   -0.592858   0.040947
    26  C   -0.543981   0.022161
    27  C   -0.596191  -0.035862
    28  N   -0.063443   0.044100
    29  C    0.110404   0.004602
    30  C    0.019160  -0.008057
    31  C   -0.038671   0.007686
    32  C    0.328319  -0.025162
    33  C   -0.437595   0.000187
    34  C   -0.324033   0.001285
    35  C   -0.114811  -0.000068
    36  C    0.276736   0.000174
    37  O   -0.354051   0.000007
    38  O   -0.342486  -0.000092
    39  N    0.019676   0.093828
    40  C    0.209467  -0.054271
    41  C   -0.028037   0.191368
    42  C   -0.067167  -0.163815
    43  C    0.272700  -0.001454
    44  C   -0.406158  -0.010466
    45  C   -0.163189   0.902773
    46  C   -0.354933  -0.038318
    47  N   -0.049434   0.069848
    48  C    0.260991  -0.048420
    49  C   -0.047100   0.206081
    50  C   -0.088487  -0.168614
    51  C    0.312656   0.031924
    52  C   -0.397036  -0.006757
    53  C   -0.160859   0.892794
    54  C   -0.352327  -0.031353
    55  N   -0.106038   0.006460
    56  C    0.271864   0.012620
    57  C   -0.020489   0.004827
    58  C   -0.040599  -0.000115
    59  C    0.244060   0.010426
    60  C   -0.410716   0.000100
    61  C   -0.300398   0.000280
    62  C   -0.225485  -0.000159
    63  C    0.285751   0.000022
    64  O   -0.281474  -0.000012
    65  O   -0.357580  -0.000000
    66  H    0.137018   0.001094
    67  H    0.119398  -0.002465
    68  H    0.130770  -0.002104
    69  H    0.103550   0.001919
    70  H    0.143548   0.000066
    71  H    0.126418   0.000035
    72  H    0.144550   0.000284
    73  H    0.127910  -0.000670
    74  H    0.133018   0.000289
    75  H    0.117243   0.000055
    76  H    0.059085  -0.000016
    77  H    0.132135   0.005710
    78  H    0.146741   0.001277
    79  H    0.136763   0.007280
    80  H    0.080376  -0.023055
    81  H    0.130870   0.051154
    82  H    0.120814   0.003586
    83  H    0.117962   0.004051
    84  H    0.136031   0.004289
    85  H    0.132457   0.000106
    86  H    0.134463   0.007496
    87  H    0.092307  -0.024157
    88  H    0.131477   0.050372
    89  H    0.122808   0.004069
    90  H    0.110623   0.002838
    91  H    0.133609  -0.000090
    92  H    0.115940   0.000318
    93  H    0.143033   0.000159
    94  H    0.124655  -0.000228
    95  H    0.081949   0.000342
    96  H    0.154210   0.000021
    97  H    0.115885  -0.000013
    98  H    0.104759  -0.000296
    99  H    0.140481   0.000142
   100  H    0.355620   0.000011
   101  H    0.336395   0.000109
 Sum of Mulliken charges =  -0.00000   4.00000

 Dipole moment (field-independent basis, Debye):
    X=             -0.6110    Y=              0.1626    Z=              5.6651  Tot=              5.7003
 Quadrupole moment (field-independent basis, Debye-Ang):
   XX=           -309.7207   YY=           -335.5513   ZZ=           -315.2383
   XY=             -8.0077   XZ=            -31.9460   YZ=             13.4059

 Summary of Natural Population Analysis:

                                       Natural Population
                Natural  -----------------------------------------------
    Atom  No    Charge         Core      Valence    Rydberg      Total
 -----------------------------------------------------------------------
      C    1   -0.31784      0.99969     2.31500    0.00315     3.31784
      C    2    0.04992      0.99953     1.94116    0.00938     2.95008
      N    3   -0.24563      0.99967     2.73568    0.01028     3.74563
      C    4   -0.04005      0.99942     2.03055    0.01009     3.04005
      C    5    0.08883      0.99965     1.89976    0.01175     2.91117
      N    6   -0.18453      0.99967     2.65537    0.02949     3.68453
      H    7    0.11741      0.00000     0.38212    0.00047     0.38259
      H    8    0.10796      0.00000     0.39132    0.00072     0.39204
      H    9    0.21184      0.00000     0.28734    0.00082     0.28816
      H   10    0.11931      0.00000     0.37986    0.00083     0.38069
      H   11    0.11490      0.00000     0.38390    0.00120     0.38510
      C   12   -0.30767      0.99972     2.30385    0.00410     3.30767
      C   13   -0.27245      0.99968     2.26356    0.00922     3.27245
      S   14    0.25136      4.99931     2.72572    0.02361     7.74864
      C   15   -0.37761      0.99968     2.36905    0.00888     3.37761
      H   16    0.11328      0.00000     0.38559    0.00113     0.38672
      H   17    0.10511      0.00000     0.39424    0.00065     0.39489
      H   18    0.11160      0.00000     0.38767    0.00073     0.38840
      H   19    0.11585      0.00000     0.38301    0.00114     0.38415
      H   20    0.10956      0.00000     0.38976    0.00068     0.39044
      H   21    0.10979      0.00000     0.38923    0.00097     0.39021
      H   22    0.12288      0.00000     0.37667    0.00045     0.37712
     Fe   23    1.10107      8.99546     2.87529    0.02819    11.89893
      C   24   -0.13430      0.99949     2.12643    0.00839     3.13430
      C   25   -0.09961      0.99951     2.09225    0.00784     3.09961
      C   26   -0.10821      0.99947     2.10060    0.00814     3.10821
      C   27   -0.13081      0.99947     2.12286    0.00848     3.13081
      N   28   -0.19493      0.99971     2.67370    0.02153     3.69493
      C   29    0.06993      0.99951     1.91994    0.01061     2.93007
      C   30   -0.02714      0.99946     2.01846    0.00922     3.02714
      C   31   -0.00862      0.99948     2.00074    0.00841     3.00862
      C   32    0.06108      0.99953     1.92858    0.01080     2.93892
      C   33   -0.32224      0.99971     2.31862    0.00391     3.32224
      C   34   -0.21211      0.99966     2.20587    0.00658     3.21211
      C   35   -0.25092      0.99965     2.24289    0.00839     3.25092
      C   36    0.38652      0.99975     1.59546    0.01827     2.61348
      O   37   -0.34452      0.99979     3.33004    0.01469     4.34452
      O   38   -0.28500      0.99989     3.27330    0.01180     4.28500
      N   39   -0.16003      0.99968     2.63903    0.02132     3.66003
      C   40    0.04675      0.99953     1.94310    0.01062     2.95325
      C   41    0.07908      0.99948     1.91290    0.00855     2.92092
      C   42   -0.11140      0.99942     2.10230    0.00967     3.11140
      C   43    0.07380      0.99950     1.91606    0.01064     2.92620
      C   44   -0.32761      0.99971     2.32415    0.00376     3.32761
      C   45    0.37398      0.99930     1.61891    0.00781     2.62602
      C   46   -0.34630      0.99972     2.34350    0.00308     3.34630
      N   47   -0.16593      0.99970     2.64384    0.02239     3.66593
      C   48    0.04698      0.99950     1.94290    0.01061     2.95302
      C   49    0.08479      0.99946     1.90701    0.00874     2.91521
      C   50   -0.11711      0.99942     2.10788    0.00981     3.11711
      C   51    0.08748      0.99951     1.90253    0.01048     2.91252
      C   52   -0.32702      0.99971     2.32367    0.00364     3.32702
      C   53    0.39001      0.99928     1.60281    0.00791     2.60999
      C   54   -0.34583      0.99972     2.34308    0.00303     3.34583
      N   55   -0.20567      0.99971     2.68363    0.02233     3.70567
      C   56    0.07375      0.99951     1.91564    0.01110     2.92625
      C   57   -0.00946      0.99946     2.00130    0.00869     3.00946
      C   58   -0.02706      0.99945     2.01739    0.01022     3.02706
      C   59    0.07527      0.99952     1.91472    0.01049     2.92473
      C   60   -0.32032      0.99971     2.31675    0.00386     3.32032
      C   61   -0.21730      0.99968     2.20997    0.00765     3.21730
      C   62   -0.26381      0.99965     2.25531    0.00886     3.26381
      C   63    0.38037      0.99974     1.60239    0.01749     2.61963
      O   64   -0.31376      0.99981     3.29863    0.01532     4.31376
      O   65   -0.29096      0.99989     3.27880    0.01227     4.29096
      H   66    0.10896      0.00000     0.38940    0.00164     0.39104
      H   67    0.11087      0.00000     0.38783    0.00130     0.38913
      H   68    0.11164      0.00000     0.38677    0.00159     0.38836
      H   69    0.10971      0.00000     0.38892    0.00137     0.39029
      H   70    0.11158      0.00000     0.38761    0.00081     0.38842
      H   71    0.10879      0.00000     0.39067    0.00054     0.39121
      H   72    0.11238      0.00000     0.38684    0.00078     0.38762
      H   73    0.11005      0.00000     0.38895    0.00099     0.38995
      H   74    0.11310      0.00000     0.38579    0.00111     0.38690
      H   75    0.11885      0.00000     0.38043    0.00071     0.38115
      H   76    0.10189      0.00000     0.39742    0.00070     0.39811
      H   77    0.11241      0.00000     0.38683    0.00076     0.38759
      H   78    0.11376      0.00000     0.38552    0.00072     0.38624
      H   79    0.11478      0.00000     0.38446    0.00077     0.38522
      H   80    0.07202      0.00000     0.42713    0.00085     0.42798
      H   81    0.13188      0.00000     0.36759    0.00054     0.36812
      H   82    0.10665      0.00000     0.39266    0.00070     0.39335
      H   83    0.10686      0.00000     0.39239    0.00075     0.39314
      H   84    0.11271      0.00000     0.38657    0.00071     0.38729
      H   85    0.11278      0.00000     0.38646    0.00076     0.38722
      H   86    0.11404      0.00000     0.38518    0.00079     0.38596
      H   87    0.07212      0.00000     0.42697    0.00091     0.42788
      H   88    0.13165      0.00000     0.36782    0.00053     0.36835
      H   89    0.10684      0.00000     0.39242    0.00074     0.39316
      H   90    0.10540      0.00000     0.39380    0.00080     0.39460
      H   91    0.11069      0.00000     0.38862    0.00069     0.38931
      H   92    0.10665      0.00000     0.39253    0.00082     0.39335
      H   93    0.11068      0.00000     0.38845    0.00087     0.38932
      H   94    0.10872      0.00000     0.39037    0.00091     0.39128
      H   95    0.09738      0.00000     0.40149    0.00113     0.40262
      H   96    0.12909      0.00000     0.37017    0.00074     0.37091
      H   97    0.11331      0.00000     0.38603    0.00066     0.38669
      H   98    0.10661      0.00000     0.39269    0.00070     0.39339
      H   99    0.11000      0.00000     0.38928    0.00073     0.39000
      H  100    0.25935      0.00000     0.23945    0.00120     0.24065
      H  101    0.24910      0.00000     0.24993    0.00098     0.25090
 =======================================================================
   * Total *    2.00000     64.97428   137.39907    0.62665   203.00000

 Normal termination of Gaussian 16 at Tue Feb  7 05:04:01 2023.
