 Gaussian 16, Revision A.03,
 Gaussian 16:  AM64L-G16RevA.03 25-Dec-2016

 ----------------------------------------------------------------------
 # PBE1PBE/def2TZVP empiricaldispersion=GD3BJ scf=maxcycle=999 geom=che
 ck pop=nbo
 ----------------------------------------------------------------------

 ----------
 1gu2_III_H
 ----------
 Structure from the checkpoint file:  "1gu2_III_H.chk"
 Charge =  1 Multiplicity = 6

                         Standard orientation:
 ---------------------------------------------------------------------
 Center     Atomic      Atomic             Coordinates (Angstroms)
 Number     Number       Type             X           Y           Z
 ---------------------------------------------------------------------
      1          6           0        2.698918    0.347018    5.433796
      2          6           0        1.938739    0.438656    4.147828
      3          7           0        0.671762    0.967721    4.060266
      4          6           0        2.204570    0.054638    2.895779
      5          6           0        0.217809    0.898852    2.797353
      6          7           0        1.145405    0.348909    2.056190
      7          6           0       -1.113624   -2.085795   -4.648404
      8          6           0       -0.393403   -1.234251   -3.652440
      9          7           0       -0.091089    0.102830   -3.867974
     10          6           0        0.048347   -1.493245   -2.409559
     11          6           0        0.495534    0.607666   -2.795519
     12          7           0        0.592931   -0.355205   -1.870202
     13         26           0        0.877727   -0.031142    0.089943
     14          6           0       -2.519947    0.390862    0.090728
     15          6           0        0.450880   -3.327379    0.859204
     16          6           0        4.238724   -0.543388   -0.406490
     17          6           0        1.298327    3.349264   -0.319176
     18          7           0       -0.693516   -1.215087    0.472004
     19          6           0       -2.055300   -0.872145    0.413760
     20          6           0       -2.859758   -2.023750    0.714619
     21          6           0       -2.029785   -3.047021    0.978035
     22          6           0       -0.684508   -2.561065    0.788910
     23          6           0       -2.393923   -4.503734    1.361349
     24          6           0       -4.397954   -2.037832    0.730338
     25          6           0       -4.995046   -2.462852   -0.623842
     26          6           0       -6.484942   -2.452941   -0.612293
     27          8           0       -7.085137   -2.190174   -1.677112
     28          8           0       -7.114122   -2.699345    0.430064
     29          7           0        2.090837   -1.627940    0.189760
     30          6           0        1.736006   -2.911966    0.496014
     31          6           0        2.892790   -3.785233    0.344803
     32          6           0        3.944876   -3.007423   -0.037460
     33          6           0        3.443181   -1.653672   -0.105621
     34          6           0        2.902186   -5.307377    0.568938
     35          6           0        5.411914   -3.405128   -0.322897
     36          6           0        5.504423   -4.436525   -1.445328
     37          7           0        2.444562    1.163307   -0.273378
     38          6           0        3.774846    0.763008   -0.412423
     39          6           0        4.618830    1.932660   -0.529526
     40          6           0        3.805552    3.029862   -0.483297
     41          6           0        2.456976    2.558374   -0.335715
     42          6           0        6.154929    1.831415   -0.620627
     43          6           0        4.161565    4.516713   -0.466643
     44          6           0        4.961420    4.955657   -1.688847
     45          7           0       -0.351478    1.528246   -0.071983
     46          6           0        0.011679    2.866860   -0.275612
     47          6           0       -1.160418    3.657913   -0.541510
     48          6           0       -2.220799    2.798659   -0.611744
     49          6           0       -1.740911    1.500444   -0.193139
     50          6           0       -1.179308    5.181838   -0.756497
     51          6           0       -3.646196    3.155070   -1.106099
     52          6           0       -4.464949    3.952520   -0.060001
     53          6           0       -5.260423    3.082709    0.890747
     54          8           0       -5.638214    3.531403    2.012063
     55          8           0       -5.564904    1.913509    0.536216
     56          1           0       -0.650049   -1.982705   -5.607243
     57          1           0       -1.070739   -3.109400   -4.339708
     58          1           0       -2.135469   -1.774642   -4.710971
     59          1           0        0.835302    1.616330   -2.685725
     60          1           0       -0.287307    0.608664   -4.707992
     61          1           0       -0.014957   -2.440898   -1.916764
     62          1           0        5.962654   -3.990125   -2.303028
     63          1           0        6.093517   -5.267726   -1.118260
     64          1           0        4.521914   -4.774375   -1.701127
     65          1           0        6.256240   -3.007481    0.200450
     66          1           0        3.379765   -5.786980   -0.259796
     67          1           0        3.437205   -5.532225    1.467881
     68          1           0        1.896122   -5.661493    0.654603
     69          1           0        0.344354   -4.328052    1.222805
     70          1           0       -2.141874   -5.158706    0.553648
     71          1           0       -1.847835   -4.789520    2.236000
     72          1           0       -3.443484   -4.568778    1.559064
     73          1           0       -4.649886   -1.790348   -1.381142
     74          1           0       -4.656868   -3.450892   -0.856889
     75          1           0       -4.750546   -1.056768    0.971362
     76          1           0       -4.730073   -2.720383    1.484474
     77          1           0       -8.071566   -2.630118    0.440536
     78          1           0       -6.099356    4.371907    2.062075
     79          1           0       -3.790808    4.554508    0.512751
     80          1           0       -5.142695    4.598042   -0.578521
     81          1           0       -3.564906    3.740057   -1.998333
     82          1           0       -4.168106    2.249203   -1.333949
     83          1           0       -3.581266    0.522654    0.057086
     84          1           0       -1.714109    5.408668   -1.655071
     85          1           0       -1.661535    5.653279    0.074226
     86          1           0       -0.175412    5.542994   -0.838104
     87          1           0        1.426073    4.411360   -0.342283
     88          1           0        4.357809    5.593913   -2.299734
     89          1           0        5.834476    5.486841   -1.371804
     90          1           0        5.253112    4.094159   -2.252440
     91          1           0        3.878345    5.181736    0.322299
     92          1           0        6.516165    2.531257   -1.344940
     93          1           0        6.584207    2.052710    0.334176
     94          1           0        6.430233    0.840028   -0.914328
     95          1           0        5.267623   -0.712521   -0.646614
     96          1           0        3.396316    1.156261    5.494309
     97          1           0        2.016579    0.401964    6.256167
     98          1           0        3.227331   -0.582686    5.470284
     99          1           0        0.159884    1.350300    4.829431
    100          1           0       -0.738632    1.236058    2.456159
    101          1           0        3.113512   -0.416595    2.584873
 ---------------------------------------------------------------------

 SCF Done:  E(UPBE1PBE) =  -3628.67180930     A.U. after   58 cycles

 Alpha virt. eigenvalues --    1.06480   1.06744   1.06975   1.07556   1.08099
 Alpha virt. eigenvalues --    1.08612   1.08803   1.09200   1.09585   1.09616
 Alpha virt. eigenvalues --    1.09865   1.10374   1.10924   1.11041   1.11087

  Beta  occ. eigenvalues -- -256.49263 -30.23878 -26.07268 -26.07229 -26.06016
  Beta  occ. eigenvalues --  -19.33879 -19.32530 -19.26181 -19.22436 -14.53744
  Beta  occ. eigenvalues --  -14.53351 -14.47691 -14.47587 -14.47563 -14.47402
  Beta  occ. eigenvalues --  -14.47385 -14.47271 -10.43685 -10.40596 -10.37665
  Beta  occ. eigenvalues --  -10.37346 -10.34799 -10.34755 -10.34745 -10.34628
  Beta  occ. eigenvalues --  -10.34573 -10.34571 -10.34419 -10.34407 -10.34338
  Beta  occ. eigenvalues --  -10.34126 -10.32279 -10.32114 -10.32108 -10.31910
  Beta  occ. eigenvalues --  -10.31815 -10.31797 -10.31742 -10.31647 -10.31515
  Beta  occ. eigenvalues --  -10.31508 -10.31431 -10.31383 -10.31270 -10.31091
  Beta  occ. eigenvalues --  -10.31061 -10.31056 -10.31027 -10.30949 -10.30805
  Beta  occ. eigenvalues --  -10.30590 -10.30319 -10.30014 -10.29851 -10.29596
  Beta  occ. eigenvalues --  -10.29309 -10.29067 -10.28492 -10.28353  -3.54482
  Beta  occ. eigenvalues --   -2.30643  -2.30583  -2.26348  -1.24003  -1.23388
  Beta  occ. eigenvalues --   -1.15330  -1.15285  -1.10453  -1.07440  -1.07242
  Beta  occ. eigenvalues --   -1.06342  -1.05922  -1.05045  -1.00033  -0.99853
  Beta  occ. eigenvalues --   -0.92837  -0.91967  -0.91637  -0.90230  -0.90077
  Beta  occ. eigenvalues --   -0.90033  -0.90025  -0.89920  -0.89547  -0.87633
  Beta  occ. eigenvalues --   -0.87192  -0.84849  -0.84573  -0.83670  -0.82501
  Beta  occ. eigenvalues --   -0.81669  -0.81227  -0.81084  -0.80584  -0.79878
  Beta  occ. eigenvalues --   -0.78239  -0.77765  -0.77024  -0.75208  -0.74715
  Beta  occ. eigenvalues --   -0.73972  -0.73911  -0.73444  -0.72605  -0.71088
  Beta  occ. eigenvalues --   -0.70845  -0.70020  -0.69449  -0.68316  -0.67080
  Beta  occ. eigenvalues --   -0.65912  -0.65696  -0.64994  -0.63642  -0.63121
  Beta  occ. eigenvalues --   -0.62493  -0.61642  -0.61190  -0.60715  -0.60294
  Beta  occ. eigenvalues --   -0.58934  -0.58745  -0.57795  -0.57497  -0.57392
  Beta  occ. eigenvalues --   -0.57075  -0.56829  -0.56652  -0.56592  -0.56422
  Beta  occ. eigenvalues --   -0.55731  -0.55171  -0.55086  -0.54020  -0.53980
  Beta  occ. eigenvalues --   -0.53669  -0.53399  -0.53122  -0.52750  -0.52615
  Beta  occ. eigenvalues --   -0.52349  -0.52224  -0.52178  -0.51963  -0.51807
  Beta  occ. eigenvalues --   -0.51767  -0.51572  -0.51383  -0.51302  -0.50893
  Beta  occ. eigenvalues --   -0.50756  -0.50466  -0.50270  -0.50205  -0.50020
  Beta  occ. eigenvalues --   -0.49886  -0.49728  -0.49462  -0.49292  -0.49061
  Beta  occ. eigenvalues --   -0.48773  -0.48429  -0.48252  -0.48094  -0.47593
  Beta  occ. eigenvalues --   -0.47419  -0.47220  -0.47043  -0.46716  -0.46229
  Beta  occ. eigenvalues --   -0.46090  -0.45808  -0.45633  -0.45507  -0.44689
  Beta  occ. eigenvalues --   -0.44532  -0.43875  -0.43728  -0.43525  -0.43175
  Beta  occ. eigenvalues --   -0.43034  -0.42711  -0.42528  -0.42003  -0.41712
  Beta  occ. eigenvalues --   -0.41656  -0.40890  -0.39828  -0.39380  -0.37609
  Beta  occ. eigenvalues --   -0.37355  -0.37276  -0.36069  -0.34972  -0.34428
  Beta  occ. eigenvalues --   -0.34138  -0.33700  -0.33446  -0.33298  -0.32636
  Beta  occ. eigenvalues --   -0.32281  -0.28756  -0.28291
  Beta virt. eigenvalues --   -0.18121  -0.17891  -0.13834  -0.13796  -0.12520
  Beta virt. eigenvalues --   -0.11781  -0.09301  -0.08878  -0.08052  -0.07744
  Beta virt. eigenvalues --   -0.06647  -0.06350  -0.05579  -0.04977  -0.04681

 Mulliken charges and spin densities:
               1          2
     1  C   -0.355821   0.001137
     2  C    0.156382   0.003820
     3  N   -0.214625   0.004003
     4  C   -0.202730   0.003054
     5  C    0.032234   0.010250
     6  N    0.091884   0.041427
     7  C   -0.369554   0.001369
     8  C    0.137147   0.003348
     9  N   -0.196239   0.005014
    10  C   -0.175762   0.004667
    11  C    0.023697   0.016450
    12  N    0.039224   0.043952
    13  Fe  -0.340560   2.945268
    14  C   -0.571497  -0.023208
    15  C   -0.518020   0.021802
    16  C   -0.483297   0.027619
    17  C   -0.520674  -0.017249
    18  N    0.000032  -0.052609
    19  C    0.267490   0.026718
    20  C    0.078311  -0.002789
    21  C   -0.058428   0.021393
    22  C    0.196139  -0.007223
    23  C   -0.393800  -0.001909
    24  C   -0.439797  -0.000390
    25  C   -0.119064   0.000040
    26  C    0.245061   0.000015
    27  O   -0.385186   0.000025
    28  O   -0.318275  -0.000000
    29  N    0.013565  -0.025044
    30  C    0.267669  -0.017122
    31  C   -0.060877   0.106554
    32  C   -0.019061  -0.118498
    33  C    0.201829   0.016818
    34  C   -0.345493  -0.006101
    35  C   -0.248210   1.016672
    36  C   -0.344435  -0.065524
    37  N    0.009642  -0.039692
    38  C    0.334570  -0.013106
    39  C   -0.121927   0.132612
    40  C    0.019062  -0.127994
    41  C    0.199481   0.043130
    42  C   -0.345603  -0.007337
    43  C   -0.242117   1.001159
    44  C   -0.340989  -0.064702
    45  N   -0.051511  -0.066653
    46  C    0.231576   0.034053
    47  C   -0.042038   0.009162
    48  C   -0.138523   0.016017
    49  C    0.304683   0.027667
    50  C   -0.360703  -0.001090
    51  C   -0.207771  -0.001998
    52  C   -0.243013   0.000713
    53  C    0.331136   0.000111
    54  O   -0.330008   0.000016
    55  O   -0.374941  -0.000025
    56  H    0.143975   0.000083
    57  H    0.148613   0.000020
    58  H    0.156458   0.000138
    59  H    0.188761   0.000010
    60  H    0.243004   0.001908
    61  H    0.157652   0.000713
    62  H    0.142900   0.038400
    63  H    0.139648   0.027121
    64  H    0.135017   0.000757
    65  H    0.157625  -0.047114
    66  H    0.136538   0.002912
    67  H    0.152384   0.004608
    68  H    0.123925  -0.000065
    69  H    0.130878  -0.001280
    70  H    0.152858   0.000944
    71  H    0.146954   0.000678
    72  H    0.143407  -0.000059
    73  H    0.132909   0.000063
    74  H    0.128224   0.000002
    75  H    0.160658  -0.000036
    76  H    0.143867  -0.000018
    77  H    0.353833   0.000005
    78  H    0.353718   0.000000
    79  H    0.120105  -0.000038
    80  H    0.148102   0.000159
    81  H    0.139504   0.000394
    82  H    0.160852  -0.000005
    83  H    0.190816   0.000561
    84  H    0.142155   0.000340
    85  H    0.145106   0.000641
    86  H    0.132895   0.000017
    87  H    0.116651   0.006533
    88  H    0.139457   0.038930
    89  H    0.140089   0.026501
    90  H    0.135675   0.000944
    91  H    0.153340  -0.046257
    92  H    0.135964   0.002332
    93  H    0.152325   0.005780
    94  H    0.130932   0.000510
    95  H    0.122325   0.003543
    96  H    0.157834   0.000073
    97  H    0.133419   0.000138
    98  H    0.156614   0.000020
    99  H    0.238301   0.001858
   100  H    0.185097   0.000505
   101  H    0.148368   0.000935
 Sum of Mulliken charges =   1.00000   5.00000

 Dipole moment (field-independent basis, Debye):
    X=              2.7281    Y=              4.7275    Z=              2.4714  Tot=              5.9916
 Quadrupole moment (field-independent basis, Debye-Ang):
   XX=           -258.4328   YY=           -234.6552   ZZ=           -258.1985
   XY=            -23.6362   XZ=            -15.9581   YZ=              0.7539

 Summary of Natural Population Analysis:

                                       Natural Population
                Natural  -----------------------------------------------
    Atom  No    Charge         Core      Valence    Rydberg      Total
 -----------------------------------------------------------------------
      C    1   -0.31971      0.99969     2.31685    0.00317     3.31971
      C    2    0.06013      0.99950     1.93152    0.00885     2.93987
      N    3   -0.23488      0.99970     2.72559    0.00959     3.73488
      C    4   -0.03194      0.99938     2.02348    0.00908     3.03194
      C    5    0.11353      0.99964     1.87658    0.01025     2.88647
      N    6   -0.15611      0.99970     2.63540    0.02101     3.65611
      C    7   -0.31989      0.99969     2.31708    0.00312     3.31989
      C    8    0.05678      0.99951     1.93469    0.00902     2.94322
      N    9   -0.23250      0.99968     2.72319    0.00963     3.73250
      C   10   -0.02571      0.99940     2.01720    0.00911     3.02571
      C   11    0.11703      0.99966     1.87298    0.01033     2.88297
      N   12   -0.15791      0.99972     2.63690    0.02128     3.65791
     Fe   13    1.62013      8.99491     2.35804    0.02691    11.37987
      C   14   -0.13243      0.99948     2.12439    0.00856     3.13243
      C   15   -0.10825      0.99948     2.10052    0.00825     3.10825
      C   16   -0.10232      0.99948     2.09504    0.00779     3.10232
      C   17   -0.12975      0.99948     2.12214    0.00813     3.12975
      N   18   -0.21490      0.99970     2.69262    0.02258     3.71490
      C   19    0.09477      0.99950     1.89560    0.01013     2.90523
      C   20   -0.01033      0.99938     2.00143    0.00953     3.01033
      C   21    0.00776      0.99937     1.98469    0.00818     2.99224
      C   22    0.07559      0.99949     1.91439    0.01052     2.92441
      C   23   -0.32005      0.99970     2.31683    0.00352     3.32005
      C   24   -0.21346      0.99967     2.20705    0.00675     3.21346
      C   25   -0.24449      0.99962     2.23647    0.00840     3.24449
      C   26    0.37853      0.99975     1.60341    0.01831     2.62147
      O   27   -0.30792      0.99990     3.29588    0.01214     4.30792
      O   28   -0.32004      0.99980     3.30705    0.01319     4.32004
      N   29   -0.20394      0.99968     2.68098    0.02328     3.70394
      C   30    0.07704      0.99953     1.91283    0.01059     2.92296
      C   31    0.04449      0.99942     1.94798    0.00811     2.95551
      C   32   -0.08417      0.99940     2.07551    0.00926     3.08417
      C   33    0.09944      0.99951     1.89081    0.01025     2.90056
      C   34   -0.31997      0.99969     2.31679    0.00349     3.31997
      C   35    0.42749      0.99973     1.56834    0.00444     2.57251
      C   36   -0.35787      0.99972     2.35470    0.00344     3.35787
      N   37   -0.20849      0.99969     2.68605    0.02275     3.70849
      C   38    0.07184      0.99951     1.91803    0.01062     2.92816
      C   39    0.06463      0.99937     1.92782    0.00818     2.93537
      C   40   -0.09763      0.99942     2.08875    0.00946     3.09763
      C   41    0.11444      0.99951     1.87595    0.01010     2.88556
      C   42   -0.31943      0.99970     2.31626    0.00348     3.31943
      C   43    0.42277      0.99973     1.57305    0.00445     2.57723
      C   44   -0.35757      0.99972     2.35444    0.00342     3.35757
      N   45   -0.22773      0.99970     2.70610    0.02194     3.72773
      C   46    0.08600      0.99948     1.90379    0.01074     2.91400
      C   47   -0.00185      0.99942     1.99429    0.00815     3.00185
      C   48   -0.00338      0.99941     1.99465    0.00931     3.00338
      C   49    0.09067      0.99950     1.89948    0.01034     2.90933
      C   50   -0.31824      0.99969     2.31487    0.00367     3.31824
      C   51   -0.21292      0.99966     2.20598    0.00728     3.21292
      C   52   -0.26057      0.99962     2.25263    0.00832     3.26057
      C   53    0.38630      0.99975     1.59728    0.01667     2.61370
      O   54   -0.32820      0.99981     3.31356    0.01482     4.32820
      O   55   -0.29403      0.99989     3.28247    0.01167     4.29403
      H   56    0.11316      0.00000     0.38619    0.00066     0.38684
      H   57    0.11984      0.00000     0.37970    0.00046     0.38016
      H   58    0.11569      0.00000     0.38364    0.00067     0.38431
      H   59    0.11495      0.00000     0.38424    0.00081     0.38505
      H   60    0.21143      0.00000     0.28782    0.00075     0.28857
      H   61    0.11629      0.00000     0.38292    0.00079     0.38371
      H   62    0.13345      0.00000     0.36606    0.00049     0.36655
      H   63    0.12610      0.00000     0.37334    0.00056     0.37390
      H   64    0.10891      0.00000     0.39044    0.00065     0.39109
      H   65    0.08431      0.00000     0.41490    0.00079     0.41569
      H   66    0.11496      0.00000     0.38429    0.00075     0.38504
      H   67    0.11740      0.00000     0.38192    0.00068     0.38260
      H   68    0.10868      0.00000     0.39073    0.00059     0.39132
      H   69    0.11330      0.00000     0.38546    0.00124     0.38670
      H   70    0.11403      0.00000     0.38529    0.00068     0.38597
      H   71    0.11359      0.00000     0.38575    0.00066     0.38641
      H   72    0.11351      0.00000     0.38582    0.00067     0.38649
      H   73    0.12097      0.00000     0.37835    0.00068     0.37903
      H   74    0.11731      0.00000     0.38207    0.00063     0.38269
      H   75    0.11551      0.00000     0.38349    0.00100     0.38449
      H   76    0.11400      0.00000     0.38523    0.00077     0.38600
      H   77    0.25924      0.00000     0.23930    0.00146     0.24076
      H   78    0.25576      0.00000     0.24317    0.00107     0.24424
      H   79    0.11159      0.00000     0.38759    0.00081     0.38841
      H   80    0.12113      0.00000     0.37823    0.00064     0.37887
      H   81    0.11248      0.00000     0.38683    0.00069     0.38752
      H   82    0.12584      0.00000     0.37335    0.00080     0.37416
      H   83    0.12640      0.00000     0.37255    0.00105     0.37360
      H   84    0.11346      0.00000     0.38575    0.00079     0.38654
      H   85    0.11275      0.00000     0.38648    0.00077     0.38725
      H   86    0.11083      0.00000     0.38857    0.00060     0.38917
      H   87    0.11478      0.00000     0.38398    0.00124     0.38522
      H   88    0.13261      0.00000     0.36689    0.00050     0.36739
      H   89    0.12586      0.00000     0.37357    0.00057     0.37414
      H   90    0.10916      0.00000     0.39020    0.00064     0.39084
      H   91    0.08359      0.00000     0.41562    0.00079     0.41641
      H   92    0.11461      0.00000     0.38466    0.00073     0.38539
      H   93    0.11791      0.00000     0.38142    0.00066     0.38209
      H   94    0.10856      0.00000     0.39087    0.00056     0.39144
      H   95    0.11507      0.00000     0.38363    0.00129     0.38493
      H   96    0.11763      0.00000     0.38175    0.00061     0.38237
      H   97    0.11226      0.00000     0.38715    0.00059     0.38774
      H   98    0.12045      0.00000     0.37904    0.00051     0.37955
      H   99    0.20951      0.00000     0.28972    0.00076     0.29049
      H  100    0.11614      0.00000     0.38307    0.00079     0.38386
      H  101    0.11421      0.00000     0.38509    0.00071     0.38579
 =======================================================================
   * Total *    3.00000     62.97323   139.41657    0.61019   203.00000

 Normal termination of Gaussian 16 at Fri Mar 17 04:36:43 2023.
