 Gaussian 16, Revision A.03,
 Gaussian 16:  AM64L-G16RevA.03 25-Dec-2016

 ----------------------------------------------------------------------
 # PBE1PBE/def2TZVP guess=read empiricaldispersion=GD3BJ scf=maxcycle=9
 99 geom=check pop=nbo scf=qc
 ----------------------------------------------------------------------

 ----------
 1gu2_III_D
 ----------
 Structure from the checkpoint file:  "1gu2_III_Dn.chk"
 Charge =  1 Multiplicity = 2

                         Standard orientation:
 ---------------------------------------------------------------------
 Center     Atomic      Atomic             Coordinates (Angstroms)
 Number     Number       Type             X           Y           Z
 ---------------------------------------------------------------------
      1          6           0        2.698918    0.347018    5.433796
      2          6           0        1.938739    0.438656    4.147828
      3          7           0        0.671762    0.967721    4.060266
      4          6           0        2.204570    0.054638    2.895779
      5          6           0        0.217809    0.898852    2.797353
      6          7           0        1.145405    0.348909    2.056190
      7          6           0       -1.113624   -2.085795   -4.648404
      8          6           0       -0.393403   -1.234251   -3.652440
      9          7           0       -0.091089    0.102830   -3.867974
     10          6           0        0.048347   -1.493245   -2.409559
     11          6           0        0.495534    0.607666   -2.795519
     12          7           0        0.592931   -0.355205   -1.870202
     13         26           0        0.877727   -0.031142    0.089943
     14          6           0       -2.519947    0.390862    0.090728
     15          6           0        0.450880   -3.327379    0.859204
     16          6           0        4.238724   -0.543388   -0.406490
     17          6           0        1.298327    3.349264   -0.319176
     18          7           0       -0.693516   -1.215087    0.472004
     19          6           0       -2.055300   -0.872145    0.413760
     20          6           0       -2.859758   -2.023750    0.714619
     21          6           0       -2.029785   -3.047021    0.978035
     22          6           0       -0.684508   -2.561065    0.788910
     23          6           0       -2.393923   -4.503734    1.361349
     24          6           0       -4.397954   -2.037832    0.730338
     25          6           0       -4.995046   -2.462852   -0.623842
     26          6           0       -6.484942   -2.452941   -0.612293
     27          8           0       -7.085137   -2.190174   -1.677112
     28          8           0       -7.114122   -2.699345    0.430064
     29          7           0        2.090837   -1.627940    0.189760
     30          6           0        1.736006   -2.911966    0.496014
     31          6           0        2.892790   -3.785233    0.344803
     32          6           0        3.944876   -3.007423   -0.037460
     33          6           0        3.443181   -1.653672   -0.105621
     34          6           0        2.902186   -5.307377    0.568938
     35          6           0        5.411914   -3.405128   -0.322897
     36          6           0        5.504423   -4.436525   -1.445328
     37          7           0        2.444562    1.163307   -0.273378
     38          6           0        3.774846    0.763008   -0.412423
     39          6           0        4.618830    1.932660   -0.529526
     40          6           0        3.805552    3.029862   -0.483297
     41          6           0        2.456976    2.558374   -0.335715
     42          6           0        6.154929    1.831415   -0.620627
     43          6           0        4.161565    4.516713   -0.466643
     44          6           0        4.961420    4.955657   -1.688847
     45          7           0       -0.351478    1.528246   -0.071983
     46          6           0        0.011679    2.866860   -0.275612
     47          6           0       -1.160418    3.657913   -0.541510
     48          6           0       -2.220799    2.798659   -0.611744
     49          6           0       -1.740911    1.500444   -0.193139
     50          6           0       -1.179308    5.181838   -0.756497
     51          6           0       -3.646196    3.155070   -1.106099
     52          6           0       -4.464949    3.952520   -0.060001
     53          6           0       -5.260423    3.082709    0.890747
     54          8           0       -5.638214    3.531403    2.012063
     55          8           0       -5.564904    1.913509    0.536216
     56          1           0       -0.650049   -1.982705   -5.607243
     57          1           0       -1.070739   -3.109400   -4.339708
     58          1           0       -2.135469   -1.774642   -4.710971
     59          1           0        0.835302    1.616330   -2.685725
     60          1           0       -0.287307    0.608664   -4.707992
     61          1           0       -0.014957   -2.440898   -1.916764
     62          1           0        5.962654   -3.990125   -2.303028
     63          1           0        6.093517   -5.267726   -1.118260
     64          1           0        4.521914   -4.774375   -1.701127
     65          1           0        6.256240   -3.007481    0.200450
     66          1           0        3.379765   -5.786980   -0.259796
     67          1           0        3.437205   -5.532225    1.467881
     68          1           0        1.896122   -5.661493    0.654603
     69          1           0        0.344354   -4.328052    1.222805
     70          1           0       -2.141874   -5.158706    0.553648
     71          1           0       -1.847835   -4.789520    2.236000
     72          1           0       -3.443484   -4.568778    1.559064
     73          1           0       -4.649886   -1.790348   -1.381142
     74          1           0       -4.656868   -3.450892   -0.856889
     75          1           0       -4.750546   -1.056768    0.971362
     76          1           0       -4.730073   -2.720383    1.484474
     77          1           0       -8.071566   -2.630118    0.440536
     78          1           0       -6.099356    4.371907    2.062075
     79          1           0       -3.790808    4.554508    0.512751
     80          1           0       -5.142695    4.598042   -0.578521
     81          1           0       -3.564906    3.740057   -1.998333
     82          1           0       -4.168106    2.249203   -1.333949
     83          1           0       -3.581266    0.522654    0.057086
     84          1           0       -1.714109    5.408668   -1.655071
     85          1           0       -1.661535    5.653279    0.074226
     86          1           0       -0.175412    5.542994   -0.838104
     87          1           0        1.426073    4.411360   -0.342283
     88          1           0        4.357809    5.593913   -2.299734
     89          1           0        5.834476    5.486841   -1.371804
     90          1           0        5.253112    4.094159   -2.252440
     91          1           0        3.878345    5.181736    0.322299
     92          1           0        6.516165    2.531257   -1.344940
     93          1           0        6.584207    2.052710    0.334176
     94          1           0        6.430233    0.840028   -0.914328
     95          1           0        5.267623   -0.712521   -0.646614
     96          1           0        3.396316    1.156261    5.494309
     97          1           0        2.016579    0.401964    6.256167
     98          1           0        3.227331   -0.582686    5.470284
     99          1           0        0.159884    1.350300    4.829431
    100          1           0       -0.738632    1.236058    2.456159
    101          1           0        3.113512   -0.416595    2.584873
 ---------------------------------------------------------------------

 SCF Done:  E(UPBE1PBE) =  -3628.68715169     a.u. after   36 cycles

 Alpha virt. eigenvalues --    1.06241   1.06413   1.06575   1.06949   1.07153
 Alpha virt. eigenvalues --    1.07644   1.08233   1.08719   1.09103   1.09354
 Alpha virt. eigenvalues --    1.09623   1.09678   1.10066   1.10343   1.10959

  Beta  occ. eigenvalues -- -256.49282 -30.28044 -26.11276 -26.10654 -26.09112
  Beta  occ. eigenvalues --  -19.33788 -19.32482 -19.26074 -19.22391 -14.54525
  Beta  occ. eigenvalues --  -14.53797 -14.49991 -14.49875 -14.47459 -14.47358
  Beta  occ. eigenvalues --  -14.47336 -14.47192 -10.43576 -10.40546 -10.38600
  Beta  occ. eigenvalues --  -10.37895 -10.35431 -10.35266 -10.34490 -10.34413
  Beta  occ. eigenvalues --  -10.34278 -10.34268 -10.34102 -10.34094 -10.34054
  Beta  occ. eigenvalues --  -10.33981 -10.33052 -10.32719 -10.31751 -10.31660
  Beta  occ. eigenvalues --  -10.31611 -10.31569 -10.31515 -10.31440 -10.31304
  Beta  occ. eigenvalues --  -10.31255 -10.31251 -10.31185 -10.31131 -10.31105
  Beta  occ. eigenvalues --  -10.31036 -10.31022 -10.30910 -10.30905 -10.30778
  Beta  occ. eigenvalues --  -10.30560 -10.30108 -10.29899 -10.29783 -10.29436
  Beta  occ. eigenvalues --  -10.29175 -10.28931 -10.28322 -10.28300  -3.63512
  Beta  occ. eigenvalues --   -2.40939  -2.39633  -2.36416  -1.23910  -1.23339
  Beta  occ. eigenvalues --   -1.16252  -1.16008  -1.10348  -1.07396  -1.07002
  Beta  occ. eigenvalues --   -1.06072  -1.05683  -1.04791  -1.00965  -1.00804
  Beta  occ. eigenvalues --   -0.92621  -0.91750  -0.91473  -0.90683  -0.90510
  Beta  occ. eigenvalues --   -0.89982  -0.89871  -0.89722  -0.89329  -0.87435
  Beta  occ. eigenvalues --   -0.87026  -0.84644  -0.84383  -0.83538  -0.82332
  Beta  occ. eigenvalues --   -0.82095  -0.81727  -0.81048  -0.80399  -0.79700
  Beta  occ. eigenvalues --   -0.78039  -0.77609  -0.76902  -0.75031  -0.74817
  Beta  occ. eigenvalues --   -0.74513  -0.74091  -0.73755  -0.72516  -0.71809
  Beta  occ. eigenvalues --   -0.71338  -0.69841  -0.69288  -0.68099  -0.66890
  Beta  occ. eigenvalues --   -0.66401  -0.66387  -0.64792  -0.63447  -0.62924
  Beta  occ. eigenvalues --   -0.62284  -0.61486  -0.60965  -0.60483  -0.60095
  Beta  occ. eigenvalues --   -0.58794  -0.58631  -0.57791  -0.57586  -0.57409
  Beta  occ. eigenvalues --   -0.57374  -0.57269  -0.57167  -0.56988  -0.56595
  Beta  occ. eigenvalues --   -0.55612  -0.55064  -0.55024  -0.54286  -0.53896
  Beta  occ. eigenvalues --   -0.53862  -0.53309  -0.53139  -0.52818  -0.52792
  Beta  occ. eigenvalues --   -0.52708  -0.52530  -0.52363  -0.52232  -0.51957
  Beta  occ. eigenvalues --   -0.51861  -0.51665  -0.51451  -0.51424  -0.51120
  Beta  occ. eigenvalues --   -0.50973  -0.50342  -0.50190  -0.50155  -0.50092
  Beta  occ. eigenvalues --   -0.49957  -0.49725  -0.49428  -0.49255  -0.48966
  Beta  occ. eigenvalues --   -0.48721  -0.48302  -0.48115  -0.47966  -0.47789
  Beta  occ. eigenvalues --   -0.47375  -0.47216  -0.47104  -0.46761  -0.46182
  Beta  occ. eigenvalues --   -0.46022  -0.45910  -0.45789  -0.45575  -0.45148
  Beta  occ. eigenvalues --   -0.44758  -0.44384  -0.44101  -0.43768  -0.43673
  Beta  occ. eigenvalues --   -0.43376  -0.42965  -0.42703  -0.42552  -0.42368
  Beta  occ. eigenvalues --   -0.41705  -0.41311  -0.40786  -0.40285  -0.39395
  Beta  occ. eigenvalues --   -0.38265  -0.38133  -0.37525  -0.37148  -0.36986
  Beta  occ. eigenvalues --   -0.35958  -0.34326  -0.34146  -0.33705  -0.33197
  Beta  occ. eigenvalues --   -0.32584  -0.32380  -0.31908  -0.28540  -0.28186
  Beta virt. eigenvalues --   -0.16791  -0.16587  -0.13765  -0.12806  -0.11845
  Beta virt. eigenvalues --   -0.11707  -0.09092  -0.08773  -0.08002  -0.07222
  Beta virt. eigenvalues --   -0.05963  -0.04974  -0.04899  -0.04497  -0.04340

 Mulliken charges and spin densities:
               1          2
     1  C   -0.354705   0.000209
     2  C    0.157890   0.000025
     3  N   -0.213637   0.000503
     4  C   -0.203993  -0.001148
     5  C    0.029203  -0.003214
     6  N    0.136253   0.032073
     7  C   -0.368139   0.000221
     8  C    0.139796  -0.000091
     9  N   -0.192785  -0.003377
    10  C   -0.174904  -0.001467
    11  C    0.030712  -0.014837
    12  N    0.092216   0.044555
    13  Fe  -0.446133  -1.116896
    14  C   -0.570796   0.002591
    15  C   -0.520145   0.038395
    16  C   -0.481668   0.041610
    17  C   -0.522278  -0.003546
    18  N    0.006414   0.043144
    19  C    0.265557   0.005720
    20  C    0.078899  -0.023819
    21  C   -0.062130   0.012907
    22  C    0.191019  -0.029102
    23  C   -0.394015  -0.000168
    24  C   -0.439836   0.002216
    25  C   -0.118785  -0.001165
    26  C    0.245304  -0.000102
    27  O   -0.385780  -0.000205
    28  O   -0.318165   0.000016
    29  N    0.023559   0.062301
    30  C    0.261438  -0.043631
    31  C   -0.064064   0.105471
    32  C   -0.019819  -0.144511
    33  C    0.198553  -0.001001
    34  C   -0.346132  -0.005285
    35  C   -0.246677   1.012415
    36  C   -0.344097  -0.065695
    37  N    0.013535   0.049167
    38  C    0.332656  -0.027091
    39  C   -0.122034   0.109104
    40  C    0.017762  -0.135639
    41  C    0.190853   0.019975
    42  C   -0.345825  -0.005766
    43  C   -0.244027   1.005046
    44  C   -0.340663  -0.065056
    45  N   -0.042263   0.024147
    46  C    0.223791   0.015093
    47  C   -0.043488   0.000331
    48  C   -0.141420  -0.003234
    49  C    0.301657   0.004961
    50  C   -0.361527   0.000273
    51  C   -0.207806   0.000096
    52  C   -0.242384  -0.000094
    53  C    0.330873  -0.000054
    54  O   -0.330311  -0.000002
    55  O   -0.375068  -0.000015
    56  H    0.145430  -0.000018
    57  H    0.150499   0.000017
    58  H    0.158755   0.000039
    59  H    0.194573   0.000997
    60  H    0.247503   0.000460
    61  H    0.163057   0.000451
    62  H    0.142718   0.037998
    63  H    0.139253   0.026901
    64  H    0.134818   0.000817
    65  H    0.157230  -0.047369
    66  H    0.135748   0.002842
    67  H    0.151578   0.004466
    68  H    0.123483   0.000038
    69  H    0.130566  -0.001713
    70  H    0.151530   0.000372
    71  H    0.146025   0.000249
    72  H    0.142842   0.000117
    73  H    0.131924   0.000046
    74  H    0.127926   0.000031
    75  H    0.160568  -0.000224
    76  H    0.143544  -0.000319
    77  H    0.353682  -0.000019
    78  H    0.353537   0.000004
    79  H    0.120072  -0.000003
    80  H    0.147420  -0.000000
    81  H    0.138399   0.000012
    82  H    0.159957  -0.000026
    83  H    0.190330   0.000082
    84  H    0.141051   0.000116
    85  H    0.144114   0.000197
    86  H    0.132344   0.000047
    87  H    0.116072   0.006254
    88  H    0.138695   0.038981
    89  H    0.139215   0.026303
    90  H    0.134941   0.000974
    91  H    0.152048  -0.046680
    92  H    0.135749   0.001974
    93  H    0.151661   0.004644
    94  H    0.130487   0.000408
    95  H    0.121615   0.003271
    96  H    0.159254  -0.000007
    97  H    0.134402   0.000005
    98  H    0.157898  -0.000008
    99  H    0.241632   0.000128
   100  H    0.189878   0.000437
   101  H    0.153533   0.000350
 Sum of Mulliken charges =   1.00000   1.00000

 Dipole moment (field-independent basis, Debye):
    X=              2.7320    Y=              4.5508    Z=              2.3294  Tot=              5.7965
 Quadrupole moment (field-independent basis, Debye-Ang):
   XX=           -260.7380   YY=           -237.3452   ZZ=           -253.7178
   XY=            -23.7498   XZ=            -14.9079   YZ=              1.9786

 Summary of Natural Population Analysis:

                                       Natural Population
                Natural  -----------------------------------------------
    Atom  No    Charge         Core      Valence    Rydberg      Total
 -----------------------------------------------------------------------
      C    1   -0.31988      0.99969     2.31701    0.00318     3.31988
      C    2    0.05902      0.99950     1.93254    0.00894     2.94098
      N    3   -0.23692      0.99970     2.72747    0.00975     3.73692
      C    4   -0.03701      0.99938     2.02853    0.00910     3.03701
      C    5    0.10156      0.99965     1.88832    0.01047     2.89844
      N    6   -0.16535      0.99966     2.63463    0.03106     3.66535
      C    7   -0.32032      0.99969     2.31751    0.00313     3.32032
      C    8    0.05660      0.99952     1.93492    0.00896     2.94340
      N    9   -0.23585      0.99968     2.72651    0.00966     3.73585
      C   10   -0.03085      0.99941     2.02205    0.00939     3.03085
      C   11    0.10174      0.99966     1.88801    0.01059     2.89826
      N   12   -0.16557      0.99967     2.63787    0.02803     3.66557
     Fe   13   -0.28789      8.99504     4.26480    0.02805    13.28789
      C   14   -0.12674      0.99948     2.11876    0.00850     3.12674
      C   15   -0.10448      0.99948     2.09682    0.00818     3.10448
      C   16   -0.10042      0.99948     2.09316    0.00777     3.10042
      C   17   -0.12606      0.99948     2.11852    0.00806     3.12606
      N   18   -0.18971      0.99967     2.66392    0.02612     3.68971
      C   19    0.08282      0.99950     1.90787    0.00980     2.91718
      C   20   -0.01858      0.99938     2.00962    0.00958     3.01858
      C   21   -0.00010      0.99937     1.99250    0.00823     3.00010
      C   22    0.06617      0.99949     1.92397    0.01036     2.93383
      C   23   -0.31929      0.99970     2.31607    0.00352     3.31929
      C   24   -0.21303      0.99967     2.20659    0.00677     3.21303
      C   25   -0.24501      0.99962     2.23698    0.00840     3.24501
      C   26    0.37859      0.99975     1.60334    0.01831     2.62141
      O   27   -0.30831      0.99990     3.29627    0.01214     4.30831
      O   28   -0.31999      0.99980     3.30699    0.01320     4.31999
      N   29   -0.17706      0.99965     2.65036    0.02705     3.67706
      C   30    0.06600      0.99953     1.92398    0.01049     2.93400
      C   31    0.04091      0.99942     1.95176    0.00791     2.95909
      C   32   -0.09531      0.99940     2.08650    0.00940     3.09531
      C   33    0.08827      0.99951     1.90231    0.00991     2.91173
      C   34   -0.31961      0.99969     2.31639    0.00352     3.31961
      C   35    0.42553      0.99973     1.57026    0.00447     2.57447
      C   36   -0.35803      0.99972     2.35486    0.00346     3.35803
      N   37   -0.18235      0.99967     2.65648    0.02620     3.68235
      C   38    0.06402      0.99951     1.92624    0.01024     2.93598
      C   39    0.05230      0.99942     1.94037    0.00790     2.94770
      C   40   -0.10244      0.99941     2.09351    0.00952     3.10244
      C   41    0.10206      0.99951     1.88846    0.00997     2.89794
      C   42   -0.31833      0.99969     2.31510    0.00354     3.31833
      C   43    0.42248      0.99973     1.57327    0.00451     2.57752
      C   44   -0.35764      0.99972     2.35449    0.00343     3.35764
      N   45   -0.20475      0.99967     2.67943    0.02565     3.70475
      C   46    0.07585      0.99948     1.91408    0.01060     2.92415
      C   47   -0.00851      0.99942     2.00090    0.00819     3.00851
      C   48   -0.01318      0.99941     2.00442    0.00935     3.01318
      C   49    0.07971      0.99950     1.91087    0.00991     2.92029
      C   50   -0.31769      0.99969     2.31432    0.00368     3.31769
      C   51   -0.21231      0.99966     2.20534    0.00730     3.21231
      C   52   -0.26111      0.99962     2.25315    0.00834     3.26111
      C   53    0.38631      0.99975     1.59726    0.01669     2.61369
      O   54   -0.32837      0.99981     3.31374    0.01482     4.32837
      O   55   -0.29409      0.99989     3.28253    0.01167     4.29409
      H   56    0.11370      0.00000     0.38565    0.00065     0.38630
      H   57    0.12062      0.00000     0.37892    0.00046     0.37938
      H   58    0.11653      0.00000     0.38281    0.00066     0.38347
      H   59    0.11760      0.00000     0.38159    0.00080     0.38240
      H   60    0.21266      0.00000     0.28658    0.00075     0.28734
      H   61    0.11832      0.00000     0.38090    0.00078     0.38168
      H   62    0.13324      0.00000     0.36627    0.00050     0.36676
      H   63    0.12582      0.00000     0.37361    0.00057     0.37418
      H   64    0.10899      0.00000     0.39036    0.00065     0.39101
      H   65    0.08409      0.00000     0.41512    0.00079     0.41591
      H   66    0.11459      0.00000     0.38465    0.00076     0.38541
      H   67    0.11690      0.00000     0.38241    0.00069     0.38310
      H   68    0.10851      0.00000     0.39090    0.00060     0.39149
      H   69    0.11293      0.00000     0.38584    0.00122     0.38707
      H   70    0.11323      0.00000     0.38608    0.00069     0.38677
      H   71    0.11297      0.00000     0.38636    0.00067     0.38703
      H   72    0.11338      0.00000     0.38595    0.00067     0.38662
      H   73    0.12080      0.00000     0.37853    0.00068     0.37920
      H   74    0.11726      0.00000     0.38211    0.00063     0.38274
      H   75    0.11535      0.00000     0.38364    0.00101     0.38465
      H   76    0.11379      0.00000     0.38544    0.00078     0.38621
      H   77    0.25918      0.00000     0.23936    0.00146     0.24082
      H   78    0.25569      0.00000     0.24324    0.00107     0.24431
      H   79    0.11167      0.00000     0.38751    0.00082     0.38833
      H   80    0.12088      0.00000     0.37847    0.00065     0.37912
      H   81    0.11199      0.00000     0.38731    0.00070     0.38801
      H   82    0.12554      0.00000     0.37365    0.00081     0.37446
      H   83    0.12578      0.00000     0.37317    0.00105     0.37422
      H   84    0.11291      0.00000     0.38630    0.00079     0.38709
      H   85    0.11206      0.00000     0.38716    0.00078     0.38794
      H   86    0.11060      0.00000     0.38880    0.00060     0.38940
      H   87    0.11441      0.00000     0.38436    0.00123     0.38559
      H   88    0.13234      0.00000     0.36716    0.00050     0.36766
      H   89    0.12542      0.00000     0.37401    0.00057     0.37458
      H   90    0.10901      0.00000     0.39034    0.00065     0.39099
      H   91    0.08311      0.00000     0.41609    0.00080     0.41689
      H   92    0.11436      0.00000     0.38490    0.00074     0.38564
      H   93    0.11716      0.00000     0.38215    0.00068     0.38284
      H   94    0.10834      0.00000     0.39108    0.00057     0.39166
      H   95    0.11458      0.00000     0.38413    0.00129     0.38542
      H   96    0.11811      0.00000     0.38128    0.00061     0.38189
      H   97    0.11266      0.00000     0.38675    0.00059     0.38734
      H   98    0.12091      0.00000     0.37858    0.00050     0.37909
      H   99    0.21030      0.00000     0.28893    0.00077     0.28970
      H  100    0.11788      0.00000     0.38135    0.00077     0.38212
      H  101    0.11599      0.00000     0.38331    0.00070     0.38401
 =======================================================================
   * Total *    1.00000     62.97324   141.38509    0.64168   205.00000

 Normal termination of Gaussian 16 at Thu Mar  9 19:59:46 2023.
