 Gaussian 16, Revision A.03,
 Gaussian 16:  ES64L-G16RevA.03 25-Dec-2016

 ----------------------------------------------------------------------
 # PBE1PBE/def2TZVP empiricaldispersion=GD3BJ scf=maxcycle=999 geom=che
 ck pop=nbo
 ----------------------------------------------------------------------

 ----------
 1h9xd_II_Q
 ----------
 Structure from the checkpoint file:  "1h9xd_II_Q.chk"
 Charge =  0 Multiplicity = 5

                         Standard orientation:
 ---------------------------------------------------------------------
 Center     Atomic      Atomic             Coordinates (Angstroms)
 Number     Number       Type             X           Y           Z
 ---------------------------------------------------------------------
      1          6           0        0.340892   -0.599667    5.597624
      2          6           0        0.186257   -0.717370    4.109296
      3          7           0       -0.624124   -1.698366    3.561525
      4          6           0        0.699828   -0.026906    3.062897
      5          6           0       -0.583537   -1.602257    2.244281
      6          7           0        0.201557   -0.585497    1.894054
      7         26           0        0.611459   -0.087848   -0.189557
      8          6           0       -2.837475   -0.377080   -0.662748
      9          6           0        0.889429   -3.416501   -0.991310
     10          6           0        3.943717    0.372308   -1.077430
     11          6           0        0.237820    3.336506   -0.120456
     12          7           0       -0.695994   -1.572565   -0.794608
     13          6           0       -2.073056   -1.510591   -0.771672
     14          6           0       -2.627815   -2.850449   -0.786828
     15          6           0       -1.612096   -3.707399   -0.875289
     16          6           0       -0.394241   -2.918845   -0.893653
     17          6           0       -1.674609   -5.254973   -0.947697
     18          6           0       -4.156995   -3.150684   -0.715172
     19          6           0       -4.682118   -3.161800    0.729927
     20          6           0       -6.101008   -3.589721    1.012528
     21          8           0       -6.726965   -4.049927    0.031102
     22          8           0       -6.548602   -3.477043    2.213815
     23          7           0        2.097267   -1.252607   -0.939232
     24          6           0        2.028625   -2.627859   -1.070545
     25          6           0        3.322142   -3.133769   -1.435957
     26          8           0        3.587413   -4.620604   -1.689423
     27          6           0        4.109297   -2.058843   -1.679010
     28          6           0        4.308739   -1.954896   -3.234508
     29          6           0        5.502538   -2.209324   -1.060400
     30          6           0        5.643063   -2.394974    0.241403
     31          8           0        6.768709   -2.768621    0.696331
     32          8           0        4.773045   -2.257382    1.133712
     33          6           0        3.422718   -0.903869   -1.149243
     34          7           0        1.817901    1.524250   -0.561253
     35          6           0        3.171352    1.496429   -0.803495
     36          6           0        3.708281    2.844107   -0.759892
     37          8           0        5.187375    3.145340   -0.970942
     38          6           0        2.676012    3.686430   -0.560647
     39          6           0        2.675126    4.558328   -1.849295
     40          6           0        2.901152    4.645863    0.607361
     41          6           0        3.013657    4.118966    1.816995
     42          8           0        2.222951    4.424412    2.749126
     43          8           0        3.922718    3.275107    2.097198
     44          6           0        1.499909    2.846735   -0.343008
     45          7           0       -0.962523    1.193529   -0.428967
     46          6           0       -0.902009    2.556747   -0.233209
     47          6           0       -2.245798    3.115890   -0.274225
     48          6           0       -3.095859    2.096648   -0.435292
     49          6           0       -2.294124    0.883846   -0.502979
     50          6           0       -2.531784    4.622769   -0.126017
     51          6           0       -4.637736    2.121232   -0.524098
     52          6           0       -5.306828    3.318162   -1.169716
     53          6           0       -6.789094    3.222493   -1.422978
     54          8           0       -7.377406    4.284925   -1.792283
     55          8           0       -7.355000    2.117415   -1.269766
     56          1           0       -0.605193   -0.360907    6.036733
     57          1           0        0.693842   -1.528708    5.994119
     58          1           0        1.044264    0.174522    5.823012
     59          1           0        1.371722    0.803412    3.126389
     60          1           0       -1.102452   -2.243697    1.562972
     61          1           0       -1.153909   -2.370283    4.079073
     62          1           0        4.993071    0.503386   -1.240447
     63          1           0        1.014336   -4.479070   -1.006938
     64          1           0       -3.902383   -0.473149   -0.703268
     65          1           0        0.128959    4.365478    0.152062
     66          1           0       -2.188282    4.958651    0.830063
     67          1           0       -2.021107    5.160291   -0.897496
     68          1           0       -3.584548    4.795727   -0.207705
     69          1           0       -4.943223    1.250383   -1.065577
     70          1           0       -5.019237    2.037277    0.472048
     71          1           0       -5.135494    4.167717   -0.542180
     72          1           0       -4.824648    3.496862   -2.108048
     73          1           0       -7.713396    4.900304   -1.136524
     74          1           0       -2.350364   -5.619883   -0.202650
     75          1           0       -2.017060   -5.553156   -1.916570
     76          1           0       -0.699542   -5.659842   -0.773840
     77          1           0       -4.683444   -2.401947   -1.269379
     78          1           0       -4.343660   -4.106224   -1.159017
     79          1           0       -4.039451   -3.803980    1.295156
     80          1           0       -4.567887   -2.170320    1.115699
     81          1           0       -7.674688   -4.191320    0.089666
     82          1           0        4.739287   -1.005638   -3.476245
     83          1           0        4.961131   -2.736604   -3.563473
     84          1           0        3.361580   -2.051680   -3.722793
     85          1           0        2.987165    5.552795   -1.607289
     86          1           0        3.349551    4.137202   -2.565328
     87          1           0        1.688052    4.584597   -2.261478
     88          1           0        5.975065   -3.036122   -1.548277
     89          1           0        6.055206   -1.328739   -1.313439
     90          1           0        6.983249   -2.627857    1.621403
     91          1           0        3.794837    5.199393    0.407781
     92          1           0        2.083033    5.335231    0.626160
     93          1           0        2.568976    4.705674    3.599277
 ---------------------------------------------------------------------

 SCF Done:  E(UPBE1PBE) =  -3813.24128886     A.U. after   94 cycles

 Alpha virt. eigenvalues --    1.07458   1.07673   1.08168   1.08222   1.08972
 Alpha virt. eigenvalues --    1.09052   1.09392   1.09698   1.10147   1.10668
 Alpha virt. eigenvalues --    1.10847   1.11318   1.11420   1.11781   1.12146

  Beta  occ. eigenvalues -- -256.35453 -30.08050 -25.91844 -25.91112 -25.90829
  Beta  occ. eigenvalues --  -19.28523 -19.26641 -19.26001 -19.24224 -19.19963
  Beta  occ. eigenvalues --  -19.18325 -19.17209 -19.16895 -19.16571 -19.16151
  Beta  occ. eigenvalues --  -14.46191 -14.40962 -14.40502 -14.40496 -14.38084
  Beta  occ. eigenvalues --  -14.37817 -10.36932 -10.36650 -10.34479 -10.33445
  Beta  occ. eigenvalues --  -10.29948 -10.29778 -10.29665 -10.27679 -10.27650
  Beta  occ. eigenvalues --  -10.27100 -10.26750 -10.26559 -10.26140 -10.25847
  Beta  occ. eigenvalues --  -10.25816 -10.25653 -10.25488 -10.25237 -10.25192
  Beta  occ. eigenvalues --  -10.24246 -10.24046 -10.24034 -10.23903 -10.23834
  Beta  occ. eigenvalues --  -10.23551 -10.23464 -10.23341 -10.23312 -10.23240
  Beta  occ. eigenvalues --  -10.23228 -10.23214 -10.23116 -10.22908 -10.22896
  Beta  occ. eigenvalues --  -10.22880 -10.22767 -10.22675 -10.22097  -3.38948
  Beta  occ. eigenvalues --   -2.13918  -2.13713  -2.13452  -1.18230  -1.17108
  Beta  occ. eigenvalues --   -1.17000  -1.15530  -1.07670  -1.04303  -1.01961
  Beta  occ. eigenvalues --   -1.01537  -1.01196  -1.00727  -0.99934  -0.98662
  Beta  occ. eigenvalues --   -0.97552  -0.92135  -0.91847  -0.90904  -0.88318
  Beta  occ. eigenvalues --   -0.87562  -0.84947  -0.84565  -0.84247  -0.82644
  Beta  occ. eigenvalues --   -0.82036  -0.81837  -0.80695  -0.80444  -0.80000
  Beta  occ. eigenvalues --   -0.79901  -0.77216  -0.75605  -0.74103  -0.73927
  Beta  occ. eigenvalues --   -0.73033  -0.72305  -0.71295  -0.71188  -0.70983
  Beta  occ. eigenvalues --   -0.68619  -0.67989  -0.67490  -0.66562  -0.66116
  Beta  occ. eigenvalues --   -0.65981  -0.65863  -0.63636  -0.61639  -0.59711
  Beta  occ. eigenvalues --   -0.59459  -0.58090  -0.57793  -0.57372  -0.56423
  Beta  occ. eigenvalues --   -0.55870  -0.54793  -0.54392  -0.53992  -0.53564
  Beta  occ. eigenvalues --   -0.52933  -0.52536  -0.52301  -0.51910  -0.51890
  Beta  occ. eigenvalues --   -0.51057  -0.50445  -0.50242  -0.49663  -0.49494
  Beta  occ. eigenvalues --   -0.49345  -0.49273  -0.49045  -0.48928  -0.48014
  Beta  occ. eigenvalues --   -0.47977  -0.47354  -0.46951  -0.46372  -0.45949
  Beta  occ. eigenvalues --   -0.45774  -0.45527  -0.45350  -0.44859  -0.44631
  Beta  occ. eigenvalues --   -0.44581  -0.44355  -0.44279  -0.43832  -0.43572
  Beta  occ. eigenvalues --   -0.43324  -0.43291  -0.42527  -0.42445  -0.42221
  Beta  occ. eigenvalues --   -0.42087  -0.41941  -0.41624  -0.41211  -0.41030
  Beta  occ. eigenvalues --   -0.40687  -0.40103  -0.39762  -0.39503  -0.39234
  Beta  occ. eigenvalues --   -0.39078  -0.38838  -0.38410  -0.38335  -0.37870
  Beta  occ. eigenvalues --   -0.37612  -0.37261  -0.37163  -0.36912  -0.36477
  Beta  occ. eigenvalues --   -0.36185  -0.35883  -0.35799  -0.35367  -0.35032
  Beta  occ. eigenvalues --   -0.34638  -0.34258  -0.34115  -0.33128  -0.32523
  Beta  occ. eigenvalues --   -0.32308  -0.32036  -0.31935  -0.31184  -0.30425
  Beta  occ. eigenvalues --   -0.29844  -0.29369  -0.28579  -0.27729  -0.26842
  Beta  occ. eigenvalues --   -0.26592  -0.26243  -0.26135  -0.25578  -0.25497
  Beta  occ. eigenvalues --   -0.24281  -0.23883  -0.21714  -0.19159  -0.18284
  Beta virt. eigenvalues --   -0.10371  -0.09526  -0.05632  -0.03706  -0.02802
  Beta virt. eigenvalues --   -0.02702  -0.02036  -0.01082  -0.00216   0.00716
  Beta virt. eigenvalues --    0.00824   0.01032   0.01169   0.01340   0.01433

 Mulliken charges and spin densities:
               1          2
     1  C   -0.389216   0.000638
     2  C    0.149292   0.003011
     3  N   -0.213056   0.001773
     4  C   -0.170336   0.000678
     5  C    0.061002   0.008294
     6  N   -0.146925   0.012110
     7  Fe   0.286022   3.909573
     8  C   -0.464304  -0.001779
     9  C   -0.535898  -0.012357
    10  C   -0.591901   0.031047
    11  C   -0.535862   0.003495
    12  N   -0.230026   0.031918
    13  C    0.262475  -0.002183
    14  C    0.015822   0.016428
    15  C   -0.069544  -0.010806
    16  C    0.427595   0.021212
    17  C   -0.404256   0.001204
    18  C   -0.327332  -0.000447
    19  C   -0.192638   0.000579
    20  C    0.278724   0.000157
    21  O   -0.304005  -0.000004
    22  O   -0.407608   0.000058
    23  N   -0.153568   0.030770
    24  C    0.279534   0.024889
    25  C   -0.219573  -0.009751
    26  O   -0.455464   0.032570
    27  C    0.575315   0.004590
    28  C   -0.366127  -0.002720
    29  C   -0.205866  -0.000636
    30  C    0.212714   0.000112
    31  O   -0.353457   0.000058
    32  O   -0.401429  -0.000393
    33  C    0.228030  -0.034992
    34  N   -0.162606   0.001026
    35  C    0.372068  -0.043619
    36  C   -0.303731   0.050459
    37  O   -0.445769  -0.108239
    38  C    0.758548  -0.003148
    39  C   -0.413756   0.000964
    40  C   -0.198943   0.003095
    41  C    0.194645  -0.001194
    42  O   -0.358953  -0.000021
    43  O   -0.369042   0.000755
    44  C    0.009100   0.004754
    45  N   -0.184092   0.022949
    46  C    0.326303   0.002755
    47  C   -0.101067  -0.001867
    48  C   -0.017623   0.010850
    49  C    0.288572  -0.000667
    50  C   -0.362374   0.000686
    51  C   -0.320105   0.000108
    52  C   -0.212138   0.000249
    53  C    0.316094   0.000064
    54  O   -0.364341   0.000023
    55  O   -0.329625  -0.000002
    56  H    0.141420   0.000128
    57  H    0.143032   0.000053
    58  H    0.145083  -0.000014
    59  H    0.154815   0.000447
    60  H    0.185630   0.000170
    61  H    0.238978   0.000835
    62  H    0.127545  -0.001216
    63  H    0.118085  -0.000080
    64  H    0.128728  -0.000404
    65  H    0.138632  -0.000368
    66  H    0.139726  -0.000205
    67  H    0.144654  -0.000135
    68  H    0.107072   0.000228
    69  H    0.131973   0.000051
    70  H    0.125633   0.000265
    71  H    0.079144  -0.000027
    72  H    0.144666   0.000058
    73  H    0.354134   0.000003
    74  H    0.129221   0.000122
    75  H    0.148476  -0.000583
    76  H    0.146309  -0.000074
    77  H    0.131594   0.000184
    78  H    0.136304   0.000257
    79  H    0.127287  -0.000081
    80  H    0.139980   0.000009
    81  H    0.345125   0.000009
    82  H    0.147060  -0.000243
    83  H    0.149206  -0.000501
    84  H    0.150019   0.000100
    85  H    0.134573  -0.000558
    86  H    0.165435   0.000722
    87  H    0.138434   0.001333
    88  H    0.151994   0.000106
    89  H    0.163765  -0.000081
    90  H    0.349637  -0.000009
    91  H    0.167188   0.000360
    92  H    0.116968   0.000043
    93  H    0.353177   0.000021
 Sum of Mulliken charges =  -0.00000   4.00000

 Dipole moment (field-independent basis, Debye):
    X=             -6.8210    Y=              6.3746    Z=              4.6696  Tot=             10.4387
 Quadrupole moment (field-independent basis, Debye-Ang):
   XX=           -349.3502   YY=           -290.9339   ZZ=           -299.6879
   XY=             -7.6798   XZ=             11.5807   YZ=              5.1262

 Summary of Natural Population Analysis:

                                       Natural Population
                Natural  -----------------------------------------------
    Atom  No    Charge         Core      Valence    Rydberg      Total
 -----------------------------------------------------------------------
      C    1   -0.32008      0.99969     2.31725    0.00314     3.32008
      C    2    0.05336      0.99955     1.93769    0.00940     2.94664
      N    3   -0.24000      0.99968     2.73025    0.01008     3.74000
      C    4   -0.03709      0.99945     2.02824    0.00940     3.03709
      C    5    0.10493      0.99970     1.88550    0.00987     2.89507
      N    6   -0.21285      0.99974     2.69381    0.01930     3.71285
     Fe    7    2.33959      8.99529     1.65149    0.01362    10.66041
      C    8   -0.10579      0.99946     2.09834    0.00799     3.10579
      C    9   -0.09198      0.99949     2.08466    0.00783     3.09198
      C   10   -0.10780      0.99947     2.09996    0.00837     3.10780
      C   11   -0.14533      0.99946     2.13756    0.00832     3.14533
      N   12   -0.21899      0.99972     2.69891    0.02036     3.71899
      C   13    0.05851      0.99952     1.93124    0.01074     2.94149
      C   14   -0.01196      0.99934     2.00304    0.00958     3.01196
      C   15   -0.02118      0.99934     2.01303    0.00881     3.02118
      C   16    0.07409      0.99954     1.91579    0.01058     2.92591
      C   17   -0.31695      0.99970     2.31358    0.00368     3.31695
      C   18   -0.21123      0.99967     2.20520    0.00636     3.21123
      C   19   -0.25184      0.99961     2.24397    0.00826     3.25184
      C   20    0.38280      0.99974     1.60027    0.01719     2.61720
      O   21   -0.31757      0.99981     3.30447    0.01329     4.31757
      O   22   -0.31179      0.99991     3.30097    0.01091     4.31179
      N   23   -0.18977      0.99972     2.67265    0.01740     3.68977
      C   24    0.03369      0.99946     1.95548    0.01137     2.96631
      C   25    0.24930      0.99908     1.73878    0.01285     2.75070
      O   26   -0.29777      0.99997     3.29505    0.00275     4.29777
      C   27   -0.12232      0.99933     2.10955    0.01344     3.12232
      C   28   -0.27120      0.99967     2.26590    0.00562     3.27120
      C   29   -0.24715      0.99938     2.23703    0.01074     3.24715
      C   30    0.37291      0.99941     1.61097    0.01671     2.62709
      O   31   -0.32518      0.99983     3.31262    0.01274     4.32518
      O   32   -0.30678      0.99990     3.29554    0.01134     4.30678
      C   33    0.11561      0.99953     1.87435    0.01050     2.88439
      N   34   -0.20513      0.99971     2.68514    0.02027     3.70513
      C   35    0.01316      0.99948     1.97569    0.01167     2.98684
      C   36    0.27868      0.99908     1.70882    0.01343     2.72132
      O   37   -0.36056      0.99997     3.35770    0.00290     4.36056
      C   38   -0.12511      0.99930     2.11263    0.01317     3.12511
      C   39   -0.27493      0.99966     2.26921    0.00606     3.27493
      C   40   -0.24410      0.99938     2.23344    0.01128     3.24410
      C   41    0.36391      0.99939     1.61947    0.01723     2.63609
      O   42   -0.33391      0.99981     3.32034    0.01375     4.33391
      O   43   -0.28873      0.99991     3.27787    0.01095     4.28873
      C   44    0.11838      0.99954     1.87092    0.01116     2.88162
      N   45   -0.22165      0.99969     2.70554    0.01642     3.72165
      C   46    0.09462      0.99954     1.89578    0.01006     2.90538
      C   47   -0.02173      0.99938     2.01403    0.00833     3.02173
      C   48   -0.00523      0.99936     1.99641    0.00946     3.00523
      C   49    0.07137      0.99954     1.91907    0.01002     2.92863
      C   50   -0.31660      0.99969     2.31340    0.00350     3.31660
      C   51   -0.21145      0.99966     2.20445    0.00734     3.21145
      C   52   -0.25514      0.99961     2.24686    0.00867     3.25514
      C   53    0.38765      0.99973     1.59542    0.01720     2.61235
      O   54   -0.34539      0.99980     3.33124    0.01434     4.34539
      O   55   -0.27865      0.99989     3.26709    0.01167     4.27865
      H   56    0.11067      0.00000     0.38862    0.00071     0.38933
      H   57    0.11177      0.00000     0.38752    0.00072     0.38823
      H   58    0.11825      0.00000     0.38126    0.00049     0.38175
      H   59    0.11621      0.00000     0.38295    0.00084     0.38379
      H   60    0.11495      0.00000     0.38384    0.00120     0.38505
      H   61    0.20977      0.00000     0.28939    0.00084     0.29023
      H   62    0.12377      0.00000     0.37529    0.00094     0.37623
      H   63    0.12410      0.00000     0.37481    0.00109     0.37590
      H   64    0.11063      0.00000     0.38824    0.00113     0.38937
      H   65    0.11227      0.00000     0.38656    0.00117     0.38773
      H   66    0.10992      0.00000     0.38932    0.00076     0.39008
      H   67    0.11045      0.00000     0.38879    0.00077     0.38955
      H   68    0.10498      0.00000     0.39418    0.00083     0.39502
      H   69    0.11567      0.00000     0.38350    0.00083     0.38433
      H   70    0.11160      0.00000     0.38763    0.00077     0.38840
      H   71    0.10496      0.00000     0.39417    0.00087     0.39504
      H   72    0.12034      0.00000     0.37892    0.00074     0.37966
      H   73    0.25830      0.00000     0.24057    0.00113     0.24170
      H   74    0.10825      0.00000     0.39105    0.00071     0.39175
      H   75    0.11227      0.00000     0.38696    0.00078     0.38773
      H   76    0.11219      0.00000     0.38724    0.00057     0.38781
      H   77    0.10801      0.00000     0.39104    0.00095     0.39199
      H   78    0.11104      0.00000     0.38793    0.00104     0.38896
      H   79    0.11748      0.00000     0.38185    0.00067     0.38252
      H   80    0.12074      0.00000     0.37861    0.00065     0.37926
      H   81    0.25622      0.00000     0.24235    0.00143     0.24378
      H   82    0.10940      0.00000     0.39011    0.00049     0.39060
      H   83    0.11500      0.00000     0.38437    0.00063     0.38500
      H   84    0.11399      0.00000     0.38554    0.00047     0.38601
      H   85    0.10965      0.00000     0.38981    0.00054     0.39035
      H   86    0.12271      0.00000     0.37671    0.00058     0.37729
      H   87    0.11042      0.00000     0.38907    0.00051     0.38958
      H   88    0.13815      0.00000     0.36109    0.00076     0.36185
      H   89    0.13065      0.00000     0.36879    0.00056     0.36935
      H   90    0.25689      0.00000     0.24191    0.00119     0.24311
      H   91    0.14462      0.00000     0.35468    0.00070     0.35538
      H   92    0.11351      0.00000     0.38593    0.00056     0.38649
      H   93    0.25857      0.00000     0.24029    0.00114     0.24143
 =======================================================================
   * Total *    2.00000     62.97329   141.39452    0.63218   205.00000

 Normal termination of Gaussian 16 at Sat Sep 10 04:03:00 2022.
