 Gaussian 16, Revision A.03,
 Gaussian 16:  ES64L-G16RevA.03 25-Dec-2016

 ---------------------------------------------------------------------
 # polar def2tzvp empiricaldispersion=gd3bj int=grid=ultrafine pbe1pbe
 ---------------------------------------------------------------------

 ----------
 1h9xd_II_S
 ----------
 Symbolic Z-matrix:
 Charge =  0 Multiplicity = 1

                         Standard orientation:
 ---------------------------------------------------------------------
 Center     Atomic      Atomic             Coordinates (Angstroms)
 Number     Number       Type             X           Y           Z
 ---------------------------------------------------------------------
      1          6           0        0.340892   -0.599667    5.597624
      2          6           0        0.186257   -0.717370    4.109296
      3          7           0       -0.624124   -1.698366    3.561525
      4          6           0        0.699828   -0.026906    3.062897
      5          6           0       -0.583537   -1.602257    2.244281
      6          7           0        0.201557   -0.585497    1.894054
      7         26           0        0.611459   -0.087848   -0.189557
      8          6           0       -2.837475   -0.377080   -0.662748
      9          6           0        0.889429   -3.416501   -0.991310
     10          6           0        3.943717    0.372308   -1.077430
     11          6           0        0.237820    3.336506   -0.120456
     12          7           0       -0.695994   -1.572565   -0.794608
     13          6           0       -2.073056   -1.510591   -0.771672
     14          6           0       -2.627815   -2.850449   -0.786828
     15          6           0       -1.612096   -3.707399   -0.875289
     16          6           0       -0.394241   -2.918845   -0.893653
     17          6           0       -1.674609   -5.254973   -0.947697
     18          6           0       -4.156995   -3.150684   -0.715172
     19          6           0       -4.682118   -3.161800    0.729927
     20          6           0       -6.101008   -3.589721    1.012528
     21          8           0       -6.726965   -4.049927    0.031102
     22          8           0       -6.548602   -3.477043    2.213815
     23          7           0        2.097267   -1.252607   -0.939232
     24          6           0        2.028625   -2.627859   -1.070545
     25          6           0        3.322142   -3.133769   -1.435957
     26          8           0        3.587413   -4.620604   -1.689423
     27          6           0        4.109297   -2.058843   -1.679010
     28          6           0        4.308739   -1.954896   -3.234508
     29          6           0        5.502538   -2.209324   -1.060400
     30          6           0        5.643063   -2.394974    0.241403
     31          8           0        6.768709   -2.768621    0.696331
     32          8           0        4.773045   -2.257382    1.133712
     33          6           0        3.422718   -0.903869   -1.149243
     34          7           0        1.817901    1.524250   -0.561253
     35          6           0        3.171352    1.496429   -0.803495
     36          6           0        3.708281    2.844107   -0.759892
     37          8           0        5.187375    3.145340   -0.970942
     38          6           0        2.676012    3.686430   -0.560647
     39          6           0        2.675126    4.558328   -1.849295
     40          6           0        2.901152    4.645863    0.607361
     41          6           0        3.013657    4.118966    1.816995
     42          8           0        2.222951    4.424412    2.749126
     43          8           0        3.922718    3.275107    2.097198
     44          6           0        1.499909    2.846735   -0.343008
     45          7           0       -0.962523    1.193529   -0.428967
     46          6           0       -0.902009    2.556747   -0.233209
     47          6           0       -2.245798    3.115890   -0.274225
     48          6           0       -3.095859    2.096648   -0.435292
     49          6           0       -2.294124    0.883846   -0.502979
     50          6           0       -2.531784    4.622769   -0.126017
     51          6           0       -4.637736    2.121232   -0.524098
     52          6           0       -5.306828    3.318162   -1.169716
     53          6           0       -6.789094    3.222493   -1.422978
     54          8           0       -7.377406    4.284925   -1.792283
     55          8           0       -7.355000    2.117415   -1.269766
     56          1           0       -0.605193   -0.360907    6.036733
     57          1           0        0.693842   -1.528708    5.994119
     58          1           0        1.044264    0.174522    5.823012
     59          1           0        1.371722    0.803412    3.126389
     60          1           0       -1.102452   -2.243697    1.562972
     61          1           0       -1.153909   -2.370283    4.079073
     62          1           0        4.993071    0.503386   -1.240447
     63          1           0        1.014336   -4.479070   -1.006938
     64          1           0       -3.902383   -0.473149   -0.703268
     65          1           0        0.128959    4.365478    0.152062
     66          1           0       -2.188282    4.958651    0.830063
     67          1           0       -2.021107    5.160291   -0.897496
     68          1           0       -3.584548    4.795727   -0.207705
     69          1           0       -4.943223    1.250383   -1.065577
     70          1           0       -5.019237    2.037277    0.472048
     71          1           0       -5.135494    4.167717   -0.542180
     72          1           0       -4.824648    3.496862   -2.108048
     73          1           0       -7.713396    4.900304   -1.136524
     74          1           0       -2.350364   -5.619883   -0.202650
     75          1           0       -2.017060   -5.553156   -1.916570
     76          1           0       -0.699542   -5.659842   -0.773840
     77          1           0       -4.683444   -2.401947   -1.269379
     78          1           0       -4.343660   -4.106224   -1.159017
     79          1           0       -4.039451   -3.803980    1.295156
     80          1           0       -4.567887   -2.170320    1.115699
     81          1           0       -7.674688   -4.191320    0.089666
     82          1           0        4.739287   -1.005638   -3.476245
     83          1           0        4.961131   -2.736604   -3.563473
     84          1           0        3.361580   -2.051680   -3.722793
     85          1           0        2.987165    5.552795   -1.607289
     86          1           0        3.349551    4.137202   -2.565328
     87          1           0        1.688052    4.584597   -2.261478
     88          1           0        5.975065   -3.036122   -1.548277
     89          1           0        6.055206   -1.328739   -1.313439
     90          1           0        6.983249   -2.627857    1.621403
     91          1           0        3.794837    5.199393    0.407781
     92          1           0        2.083033    5.335231    0.626160
     93          1           0        2.568976    4.705674    3.599277
 ---------------------------------------------------------------------

 SCF Done:  E(RPBE1PBE) =  -3813.19446050     A.U. after   31 cycles

 The electronic state is 1-A.
 Alpha  occ. eigenvalues -- -256.34070 -30.10597 -25.93596 -25.93018 -25.92952
 Alpha  occ. eigenvalues --  -19.28556 -19.26640 -19.26018 -19.24164 -19.19963
 Alpha  occ. eigenvalues --  -19.18355 -19.17237 -19.16847 -19.16529 -19.16065
 Alpha  occ. eigenvalues --  -14.45904 -14.41806 -14.41375 -14.41071 -14.39047
 Alpha  occ. eigenvalues --  -14.39016 -10.36929 -10.36685 -10.34514 -10.33373
 Alpha  occ. eigenvalues --  -10.30240 -10.29629 -10.29458 -10.27553 -10.27409
 Alpha  occ. eigenvalues --  -10.27054 -10.26842 -10.26332 -10.25996 -10.25974
 Alpha  occ. eigenvalues --  -10.25950 -10.25740 -10.25711 -10.25187 -10.25019
 Alpha  occ. eigenvalues --  -10.24235 -10.24082 -10.24029 -10.23928 -10.23892
 Alpha  occ. eigenvalues --  -10.23509 -10.23479 -10.23450 -10.23430 -10.23362
 Alpha  occ. eigenvalues --  -10.23361 -10.23263 -10.23231 -10.23117 -10.23048
 Alpha  occ. eigenvalues --  -10.22909 -10.22816 -10.22786 -10.22215  -3.45668
 Alpha  occ. eigenvalues --   -2.21944  -2.20841  -2.20721  -1.18263  -1.17126
 Alpha  occ. eigenvalues --   -1.17000  -1.15467  -1.07464  -1.04302  -1.02057
 Alpha  occ. eigenvalues --   -1.01566  -1.01220  -1.00783  -0.99937  -0.98862
 Alpha  occ. eigenvalues --   -0.97814  -0.91970  -0.91786  -0.90926  -0.88344
 Alpha  occ. eigenvalues --   -0.87561  -0.84968  -0.84631  -0.84319  -0.82434
 Alpha  occ. eigenvalues --   -0.82115  -0.81889  -0.80756  -0.80505  -0.80067
 Alpha  occ. eigenvalues --   -0.79914  -0.77335  -0.75653  -0.74162  -0.73736
 Alpha  occ. eigenvalues --   -0.73119  -0.72338  -0.71329  -0.71206  -0.71070
 Alpha  occ. eigenvalues --   -0.68663  -0.68039  -0.67564  -0.66573  -0.66026
 Alpha  occ. eigenvalues --   -0.65886  -0.65857  -0.63386  -0.61709  -0.59786
 Alpha  occ. eigenvalues --   -0.59609  -0.57882  -0.57788  -0.57394  -0.56493
 Alpha  occ. eigenvalues --   -0.55895  -0.54849  -0.54471  -0.54086  -0.53590
 Alpha  occ. eigenvalues --   -0.52980  -0.52574  -0.52321  -0.51971  -0.51935
 Alpha  occ. eigenvalues --   -0.51083  -0.50480  -0.50256  -0.49657  -0.49504
 Alpha  occ. eigenvalues --   -0.49322  -0.49110  -0.49031  -0.48822  -0.48044
 Alpha  occ. eigenvalues --   -0.47995  -0.47383  -0.46933  -0.46434  -0.45979
 Alpha  occ. eigenvalues --   -0.45708  -0.45565  -0.45405  -0.44832  -0.44715
 Alpha  occ. eigenvalues --   -0.44460  -0.44294  -0.44183  -0.43860  -0.43683
 Alpha  occ. eigenvalues --   -0.43396  -0.43191  -0.42597  -0.42495  -0.42294
 Alpha  occ. eigenvalues --   -0.42078  -0.41940  -0.41695  -0.41260  -0.41124
 Alpha  occ. eigenvalues --   -0.40779  -0.40183  -0.39818  -0.39576  -0.39321
 Alpha  occ. eigenvalues --   -0.39154  -0.38883  -0.38462  -0.38371  -0.37861
 Alpha  occ. eigenvalues --   -0.37678  -0.37320  -0.37230  -0.36950  -0.36552
 Alpha  occ. eigenvalues --   -0.36247  -0.35967  -0.35805  -0.35378  -0.34959
 Alpha  occ. eigenvalues --   -0.34679  -0.34475  -0.34142  -0.33441  -0.32516
 Alpha  occ. eigenvalues --   -0.32398  -0.32158  -0.32058  -0.31122  -0.30376
 Alpha  occ. eigenvalues --   -0.29864  -0.29369  -0.28646  -0.27675  -0.26862
 Alpha  occ. eigenvalues --   -0.26617  -0.26445  -0.26155  -0.25709  -0.25618
 Alpha  occ. eigenvalues --   -0.24272  -0.23972  -0.23410  -0.21974  -0.21777
 Alpha  occ. eigenvalues --   -0.21284  -0.19015
 Alpha virt. eigenvalues --   -0.10066  -0.09737  -0.05569  -0.04585  -0.03024
 Alpha virt. eigenvalues --   -0.02799  -0.01473  -0.00251   0.00025   0.00758
 Alpha virt. eigenvalues --    0.01072   0.01150   0.01331   0.01861   0.02432

 Mulliken charges:
               1
     1  C   -0.389619
     2  C    0.152057
     3  N   -0.215090
     4  C   -0.171390
     5  C    0.055111
     6  N   -0.105376
     7  Fe   0.104060
     8  C   -0.467206
     9  C   -0.527508
    10  C   -0.583873
    11  C   -0.528642
    12  N   -0.187404
    13  C    0.258201
    14  C    0.014787
    15  C   -0.065986
    16  C    0.422291
    17  C   -0.403767
    18  C   -0.327300
    19  C   -0.192476
    20  C    0.278572
    21  O   -0.304154
    22  O   -0.407109
    23  N   -0.106992
    24  C    0.273484
    25  C   -0.217279
    26  O   -0.457353
    27  C    0.574057
    28  C   -0.365937
    29  C   -0.204729
    30  C    0.210902
    31  O   -0.353882
    32  O   -0.399104
    33  C    0.219235
    34  N   -0.133503
    35  C    0.362505
    36  C   -0.304340
    37  O   -0.446041
    38  C    0.763263
    39  C   -0.413888
    40  C   -0.198736
    41  C    0.195505
    42  O   -0.358698
    43  O   -0.368054
    44  C   -0.001242
    45  N   -0.124891
    46  C    0.316796
    47  C   -0.096775
    48  C   -0.021649
    49  C    0.282713
    50  C   -0.362176
    51  C   -0.319959
    52  C   -0.212056
    53  C    0.316170
    54  O   -0.364396
    55  O   -0.329771
    56  H    0.140820
    57  H    0.142649
    58  H    0.144713
    59  H    0.153959
    60  H    0.181946
    61  H    0.238569
    62  H    0.128337
    63  H    0.118398
    64  H    0.129378
    65  H    0.138716
    66  H    0.140033
    67  H    0.144334
    68  H    0.107226
    69  H    0.131211
    70  H    0.125716
    71  H    0.079087
    72  H    0.144382
    73  H    0.354129
    74  H    0.129962
    75  H    0.148886
    76  H    0.146951
    77  H    0.131649
    78  H    0.136555
    79  H    0.127685
    80  H    0.140475
    81  H    0.345244
    82  H    0.146364
    83  H    0.148720
    84  H    0.149216
    85  H    0.135456
    86  H    0.165686
    87  H    0.139013
    88  H    0.152149
    89  H    0.163259
    90  H    0.349677
    91  H    0.167408
    92  H    0.117324
    93  H    0.353357
 Sum of Mulliken charges =  -0.00000

 Dipole moment (field-independent basis, Debye):
    X=             -6.8935    Y=              6.4621    Z=              4.3316  Tot=             10.3943
 Quadrupole moment (field-independent basis, Debye-Ang):
   XX=           -347.9737   YY=           -288.7910   ZZ=           -299.1463
   XY=             -6.5848   XZ=             11.4446   YZ=              5.2948

  Exact polarizability: 811.819  10.500 749.221 -39.884  31.045 407.665
 Approx polarizability:1461.063  34.3641483.184 -90.004  95.917 626.264

 Normal termination of Gaussian 16 at Fri Sep  2 16:16:30 2022.
