 Gaussian 16, Revision A.03,
 Gaussian 16:  ES64L-G16RevA.03 25-Dec-2016

 ----------------------------------------------------------------------
 # PBE1PBE/def2TZVP empiricaldispersion=GD3BJ scf=maxcycle=999 geom=che
 ck pop=nbo
 ----------------------------------------------------------------------

 -----------
 1h9xc_III_H
 -----------
 Structure from the checkpoint file:  "1h9xc_III_H.chk"
 Charge =  1 Multiplicity = 6

                         Standard orientation:
 ---------------------------------------------------------------------
 Center     Atomic      Atomic             Coordinates (Angstroms)
 Number     Number       Type             X           Y           Z
 ---------------------------------------------------------------------
      1          6           0        2.452058   -1.025755    5.162792
      2          6           0        1.651891   -0.747677    3.922044
      3          7           0        0.287472   -0.647492    3.938764
      4          6           0        2.053335   -0.557297    2.631070
      5          6           0       -0.142303   -0.420604    2.704951
      6          7           0        0.895433   -0.353022    1.893339
      7          6           0       -1.120115    2.256990   -2.849099
      8          6           0       -0.679046    0.827008   -3.006187
      9         16           0        0.902632    0.346249   -2.272776
     10          6           0        1.028229   -1.247212   -3.112209
     11         26           0        0.905995   -0.028162   -0.102785
     12          6           0       -2.555194   -0.237735   -0.066721
     13          6           0        1.086365   -3.392107   -0.438190
     14          6           0        4.341598    0.213047   -0.352527
     15          6           0        0.736012    3.291606    0.606570
     16          7           0       -0.459664   -1.528184   -0.231341
     17          6           0       -1.834547   -1.395853   -0.230853
     18          6           0       -2.414215   -2.704771   -0.476950
     19          6           0       -1.434013   -3.585160   -0.574254
     20          6           0       -0.181638   -2.856354   -0.385035
     21          6           0       -1.497299   -5.113436   -0.811885
     22          6           0       -3.955139   -2.924531   -0.561216
     23          6           0       -4.549534   -3.178120    0.847475
     24          6           0       -6.053472   -3.106719    0.932687
     25          8           0       -6.586405   -3.449749    2.019128
     26          8           0       -6.693297   -2.702060   -0.057804
     27          7           0        2.383633   -1.315745   -0.322869
     28          6           0        2.278889   -2.698120   -0.437836
     29          6           0        3.586049   -3.274901   -0.588205
     30          6           0        4.466710   -2.273378   -0.584226
     31          6           0        3.754952   -1.041904   -0.425214
     32          6           0        3.858985   -4.795998   -0.728660
     33          6           0        6.024239   -2.449625   -0.721721
     34          6           0        6.581937   -2.815249   -1.954284
     35          7           0        2.262186    1.460362    0.079747
     36          6           0        3.635625    1.366373   -0.077661
     37          6           0        4.222408    2.672233    0.140906
     38          6           0        3.226885    3.520363    0.383575
     39          6           0        1.987112    2.772465    0.388451
     40          6           0        5.745513    2.969719    0.076905
     41          6           0        3.398795    5.041595    0.760275
     42          6           0        3.992626    5.892584   -0.111362
     43          7           0       -0.583712    1.226473    0.196148
     44          6           0       -0.451957    2.597621    0.501518
     45          6           0       -1.746246    3.176906    0.652968
     46          6           0       -2.641485    2.207424    0.478892
     47          6           0       -1.943602    0.989472    0.172102
     48          6           0       -2.026241    4.674407    0.973821
     49          6           0       -4.206384    2.349507    0.532670
     50          6           0       -4.720322    2.587285   -0.905065
     51          6           0       -6.172405    2.907730   -1.098575
     52          8           0       -6.585478    2.911998   -2.289814
     53          8           0       -6.882843    3.168567   -0.096734
     54          1           0        1.954399   -1.297283   -3.645691
     55          1           0        0.989969   -2.035158   -2.389314
     56          1           0        0.214756   -1.353575   -3.799122
     57          1           0       -1.222541    2.706755   -3.814562
     58          1           0       -2.060999    2.286195   -2.340390
     59          1           0       -0.390456    2.794899   -2.280635
     60          1           0       -1.437646    0.204114   -2.580241
     61          1           0       -0.629359    0.615307   -4.053857
     62          1           0        3.444890   -0.646331    5.039411
     63          1           0        1.988993   -0.547483    6.000483
     64          1           0        2.492186   -2.081502    5.332165
     65          1           0        3.057796   -0.564171    2.262409
     66          1           0       -0.291605   -0.731686    4.749678
     67          1           0       -1.166164   -0.310117    2.414434
     68          1           0       -6.403641   -4.315690    2.391075
     69          1           0       -4.240981   -4.150003    1.171727
     70          1           0       -4.140698   -2.452826    1.519563
     71          1           0       -4.156960   -3.769300   -1.186144
     72          1           0       -4.412413   -2.055096   -0.985345
     73          1           0       -3.622772   -0.280678   -0.124449
     74          1           0       -4.472307    3.179819    1.152965
     75          1           0       -4.636936    1.452451    0.926135
     76          1           0       -4.153405    3.393591   -1.321449
     77          1           0       -4.505105    1.707391   -1.474599
     78          1           0       -7.213034    4.059772    0.038648
     79          1           0       -0.617376   -5.430298   -1.331726
     80          1           0       -1.556781   -5.618600    0.129481
     81          1           0       -2.361485   -5.347821   -1.397672
     82          1           0       -2.076440    5.231293    0.061539
     83          1           0       -2.956680    4.759514    1.495300
     84          1           0       -1.238037    5.061608    1.585138
     85          1           0        0.676354    4.323843    0.881941
     86          1           0        1.153551   -4.458984   -0.484655
     87          1           0        4.793373   -4.946090   -1.227951
     88          1           0        3.897981   -5.242569    0.242913
     89          1           0        3.073802   -5.248190   -1.297789
     90          1           0        5.395847    0.290723   -0.518131
     91          1           0        5.977349    3.444786   -0.853398
     92          1           0        6.016871    3.616434    0.885004
     93          1           0        6.291584    2.052874    0.155019
     94          1           0        3.046608    5.402133    1.704138
     95          1           0        3.655953    5.678570   -1.104211
     96          1           0        3.736258    6.899837    0.142835
     97          1           0        5.054525    5.771242   -0.060912
     98          1           0        6.657571   -2.290315    0.125870
     99          1           0        5.811351   -3.182147   -2.599639
    100          1           0        7.046490   -1.962017   -2.402711
    101          1           0        7.313785   -3.580745   -1.801593
 ---------------------------------------------------------------------

 SCF Done:  E(UPBE1PBE) =  -3880.35219001     A.U. after   47 cycles

 Alpha virt. eigenvalues --    0.94704   0.94862   0.95511   0.95786   0.96168
 Alpha virt. eigenvalues --    0.96222   0.96582   0.96724   0.97090   0.97319
 Alpha virt. eigenvalues --    0.97420   0.97576   0.97887   0.97979   0.98312

  Beta  occ. eigenvalues -- -256.51130 -89.14456 -30.25772 -26.09576 -26.08633
  Beta  occ. eigenvalues --  -26.07979 -19.33215 -19.32500 -19.25447 -19.24636
  Beta  occ. eigenvalues --  -14.55110 -14.50145 -14.49649 -14.49415 -14.47087
  Beta  occ. eigenvalues --  -14.47029 -10.42658 -10.42230 -10.38844 -10.36315
  Beta  occ. eigenvalues --  -10.35845 -10.35712 -10.35603 -10.35561 -10.35274
  Beta  occ. eigenvalues --  -10.35248 -10.35011 -10.34979 -10.34052 -10.33878
  Beta  occ. eigenvalues --  -10.33019 -10.32586 -10.32371 -10.32240 -10.32204
  Beta  occ. eigenvalues --  -10.32167 -10.32135 -10.32084 -10.32073 -10.32053
  Beta  occ. eigenvalues --  -10.31853 -10.31781 -10.31687 -10.31670 -10.31654
  Beta  occ. eigenvalues --  -10.31433 -10.31173 -10.30643 -10.30614 -10.30510
  Beta  occ. eigenvalues --  -10.30369 -10.30183 -10.29854 -10.29837 -10.29239
  Beta  occ. eigenvalues --  -10.28235 -10.27466  -8.12358  -6.05942  -6.05704
  Beta  occ. eigenvalues --   -6.05266  -3.56441  -2.33347  -2.31624  -2.28540
  Beta  occ. eigenvalues --   -1.23714  -1.23104  -1.17059  -1.10320  -1.08804
  Beta  occ. eigenvalues --   -1.08762  -1.07842  -1.07385  -1.06466  -1.01717
  Beta  occ. eigenvalues --   -0.95022  -0.94266  -0.92646  -0.92343  -0.91787
  Beta  occ. eigenvalues --   -0.91389  -0.91172  -0.91053  -0.90849  -0.88228
  Beta  occ. eigenvalues --   -0.87726  -0.87082  -0.86861  -0.86533  -0.86264
  Beta  occ. eigenvalues --   -0.83793  -0.82353  -0.81705  -0.81382  -0.80746
  Beta  occ. eigenvalues --   -0.79218  -0.77960  -0.77657  -0.77423  -0.76114
  Beta  occ. eigenvalues --   -0.75868  -0.75308  -0.73912  -0.73735  -0.72787
  Beta  occ. eigenvalues --   -0.71349  -0.70194  -0.69538  -0.69010  -0.68462
  Beta  occ. eigenvalues --   -0.66979  -0.65754  -0.64609  -0.64120  -0.63534
  Beta  occ. eigenvalues --   -0.62441  -0.62037  -0.61581  -0.60995  -0.60050
  Beta  occ. eigenvalues --   -0.59468  -0.59054  -0.58902  -0.58551  -0.58380
  Beta  occ. eigenvalues --   -0.58197  -0.58007  -0.57576  -0.57004  -0.56603
  Beta  occ. eigenvalues --   -0.55757  -0.55562  -0.55168  -0.54857  -0.54787
  Beta  occ. eigenvalues --   -0.54715  -0.54526  -0.54196  -0.53917  -0.53460
  Beta  occ. eigenvalues --   -0.53382  -0.53269  -0.53001  -0.52794  -0.52744
  Beta  occ. eigenvalues --   -0.52421  -0.52330  -0.51951  -0.51753  -0.51607
  Beta  occ. eigenvalues --   -0.51452  -0.51082  -0.50851  -0.50624  -0.50467
  Beta  occ. eigenvalues --   -0.50131  -0.49933  -0.49633  -0.49479  -0.49206
  Beta  occ. eigenvalues --   -0.48789  -0.48672  -0.48417  -0.48264  -0.47925
  Beta  occ. eigenvalues --   -0.47826  -0.47609  -0.47160  -0.46986  -0.46780
  Beta  occ. eigenvalues --   -0.46564  -0.46531  -0.46119  -0.45974  -0.45461
  Beta  occ. eigenvalues --   -0.45278  -0.44680  -0.44564  -0.43693  -0.43471
  Beta  occ. eigenvalues --   -0.43303  -0.43033  -0.42601  -0.42524  -0.42232
  Beta  occ. eigenvalues --   -0.41883  -0.40733  -0.40531  -0.39510  -0.39369
  Beta  occ. eigenvalues --   -0.38708  -0.38307  -0.37353  -0.35530  -0.35335
  Beta  occ. eigenvalues --   -0.34798  -0.34344  -0.33967  -0.33789  -0.32690
  Beta  occ. eigenvalues --   -0.30005  -0.29327
  Beta virt. eigenvalues --   -0.19368  -0.17722  -0.16760  -0.15435  -0.12553
  Beta virt. eigenvalues --   -0.12125  -0.10422  -0.09976  -0.09456  -0.08437
  Beta virt. eigenvalues --   -0.08060  -0.07896  -0.07452  -0.06621  -0.05946

 Mulliken charges and spin densities:
               1          2
     1  C   -0.369796   0.000117
     2  C    0.155610   0.001146
     3  N   -0.206926   0.001841
     4  C   -0.210100   0.002036
     5  C    0.020836   0.006629
     6  N    0.058142  -0.016201
     7  C   -0.336675   0.000079
     8  C   -0.209809   0.002011
     9  S    0.091649  -0.011355
    10  C   -0.329478   0.002667
    11  Fe  -0.370089   2.975788
    12  C   -0.632936  -0.013541
    13  C   -0.526966   0.003354
    14  C   -0.488448   0.017070
    15  C   -0.540740  -0.007838
    16  N   -0.002266   0.050456
    17  C    0.292762   0.017135
    18  C   -0.004021   0.007653
    19  C   -0.058600   0.016416
    20  C    0.237896   0.004502
    21  C   -0.388967   0.000287
    22  C   -0.290165   0.000493
    23  C   -0.297040   0.000252
    24  C    0.327588   0.000044
    25  O   -0.324046   0.000024
    26  O   -0.333531   0.000018
    27  N    0.061666  -0.049228
    28  C    0.219119  -0.004376
    29  C   -0.026692   0.042001
    30  C   -0.007647  -0.089007
    31  C    0.180539   0.011354
    32  C   -0.373455  -0.001046
    33  C   -0.282869   1.004815
    34  C   -0.338598  -0.068641
    35  N    0.016222   0.054022
    36  C    0.323937  -0.002912
    37  C   -0.063694   0.102134
    38  C    0.006055  -0.097682
    39  C    0.264105   0.026869
    40  C   -0.398158  -0.006287
    41  C   -0.282022   0.971049
    42  C   -0.314305  -0.074036
    43  N    0.116231  -0.070747
    44  C    0.306696   0.019431
    45  C   -0.046838  -0.002210
    46  C    0.044454   0.000422
    47  C    0.138519   0.009052
    48  C   -0.396534  -0.000224
    49  C   -0.246927  -0.000686
    50  C   -0.253978   0.000160
    51  C    0.300557   0.000015
    52  O   -0.335793  -0.000008
    53  O   -0.352412  -0.000000
    54  H    0.161633  -0.001309
    55  H    0.158422  -0.000186
    56  H    0.163038   0.001241
    57  H    0.148763  -0.000294
    58  H    0.102613   0.000045
    59  H    0.140073   0.000175
    60  H    0.154937   0.000005
    61  H    0.164289  -0.000251
    62  H    0.154423   0.000042
    63  H    0.138005  -0.000100
    64  H    0.156519   0.000152
    65  H    0.167430   0.000327
    66  H    0.247478   0.000651
    67  H    0.186554   0.000108
    68  H    0.351732  -0.000002
    69  H    0.130213  -0.000012
    70  H    0.137933   0.000063
    71  H    0.135303   0.000305
    72  H    0.152197   0.000054
    73  H    0.150593   0.000737
    74  H    0.111862  -0.000129
    75  H    0.130573  -0.000008
    76  H    0.145549  -0.000006
    77  H    0.139263  -0.000014
    78  H    0.362647   0.000001
    79  H    0.137523   0.000162
    80  H    0.149987   0.000499
    81  H    0.148973   0.000440
    82  H    0.159630   0.000068
    83  H    0.138844  -0.000089
    84  H    0.141646   0.000096
    85  H    0.127313   0.007238
    86  H    0.129493  -0.000203
    87  H    0.154567  -0.000754
    88  H    0.154304   0.001594
    89  H    0.134864  -0.000128
    90  H    0.140177   0.000780
    91  H    0.162309   0.002700
    92  H    0.157095   0.003959
    93  H    0.130506   0.000332
    94  H    0.142172  -0.048054
    95  H    0.135803   0.038213
    96  H    0.134895   0.008765
    97  H    0.138901   0.086030
    98  H    0.147525  -0.047053
    99  H    0.134299   0.005529
   100  H    0.144106   0.068671
   101  H    0.140966   0.034291
 Sum of Mulliken charges =   1.00000   5.00000

 Dipole moment (field-independent basis, Debye):
    X=              6.7679    Y=             -1.8524    Z=              7.5100  Tot=             10.2779
 Quadrupole moment (field-independent basis, Debye-Ang):
   XX=           -288.8197   YY=           -233.6896   ZZ=           -274.8990
   XY=             -2.8641   XZ=            -33.3857   YZ=             -0.3629

 Summary of Natural Population Analysis:

                                       Natural Population
                Natural  -----------------------------------------------
    Atom  No    Charge         Core      Valence    Rydberg      Total
 -----------------------------------------------------------------------
      C    1   -0.32059      0.99969     2.31778    0.00311     3.32059
      C    2    0.06343      0.99957     1.92818    0.00882     2.93657
      N    3   -0.23410      0.99968     2.72468    0.00974     3.73410
      C    4   -0.03521      0.99944     2.02661    0.00916     3.03521
      C    5    0.10715      0.99964     1.88226    0.01095     2.89285
      N    6   -0.18168      0.99969     2.65353    0.02845     3.68168
      C    7   -0.31188      0.99972     2.30567    0.00649     3.31188
      C    8   -0.26554      0.99963     2.25560    0.01031     3.26554
      S    9    0.34195      4.99890     2.63568    0.02347     7.65805
      C   10   -0.37095      0.99963     2.36223    0.00908     3.37095
     Fe   11    1.51980      8.99532     2.45308    0.03181    11.48020
      C   12   -0.13611      0.99945     2.12813    0.00853     3.13611
      C   13   -0.11994      0.99947     2.11226    0.00821     3.11994
      C   14   -0.11003      0.99947     2.10288    0.00769     3.11003
      C   15   -0.11447      0.99946     2.10728    0.00772     3.11447
      N   16   -0.17420      0.99970     2.65560    0.01890     3.67420
      C   17    0.08701      0.99950     1.90343    0.01005     2.91299
      C   18   -0.00682      0.99933     1.99803    0.00947     3.00682
      C   19   -0.00005      0.99933     1.99223    0.00849     3.00005
      C   20    0.08638      0.99952     1.90361    0.01048     2.91362
      C   21   -0.31796      0.99970     2.31483    0.00343     3.31796
      C   22   -0.20772      0.99968     2.20082    0.00722     3.20772
      C   23   -0.25739      0.99963     2.24931    0.00846     3.25739
      C   24    0.38155      0.99974     1.60163    0.01709     2.61845
      O   25   -0.32921      0.99980     3.31441    0.01499     4.32921
      O   26   -0.27758      0.99989     3.26573    0.01196     4.27758
      N   27   -0.22820      0.99969     2.70244    0.02607     3.72820
      C   28    0.07190      0.99949     1.91766    0.01094     2.92810
      C   29    0.02203      0.99918     1.96767    0.01112     2.97797
      C   30   -0.07379      0.99932     2.06394    0.01052     3.07379
      C   31    0.08751      0.99947     1.90287    0.01014     2.91249
      C   32   -0.31769      0.99970     2.31467    0.00332     3.31769
      C   33    0.43016      0.99964     1.56328    0.00691     2.56984
      C   34   -0.36948      0.99968     2.36281    0.00700     3.36948
      N   35   -0.16605      0.99970     2.64777    0.01858     3.66605
      C   36    0.08152      0.99951     1.90917    0.00981     2.91848
      C   37    0.04098      0.99933     1.95153    0.00816     2.95902
      C   38   -0.07157      0.99932     2.06206    0.01019     3.07157
      C   39    0.10701      0.99950     1.88387    0.00962     2.89299
      C   40   -0.31979      0.99970     2.31655    0.00355     3.31979
      C   41    0.41227      0.99957     1.58054    0.00761     2.58773
      C   42   -0.37186      0.99963     2.36430    0.00792     3.37186
      N   43   -0.23934      0.99968     2.71281    0.02685     3.73934
      C   44    0.08063      0.99947     1.90886    0.01105     2.91937
      C   45   -0.00307      0.99916     1.99279    0.01113     3.00307
      C   46   -0.01356      0.99933     2.00436    0.00988     3.01356
      C   47    0.08126      0.99948     1.90849    0.01077     2.91874
      C   48   -0.31647      0.99970     2.31334    0.00344     3.31647
      C   49   -0.20937      0.99968     2.20345    0.00624     3.20937
      C   50   -0.25493      0.99962     2.24686    0.00845     3.25493
      C   51    0.38143      0.99973     1.60139    0.01745     2.61857
      O   52   -0.27824      0.99990     3.26696    0.01138     4.27824
      O   53   -0.34029      0.99980     3.32623    0.01426     4.34029
      H   54    0.12006      0.00000     0.37952    0.00042     0.37994
      H   55    0.12399      0.00000     0.37537    0.00064     0.37601
      H   56    0.11931      0.00000     0.38013    0.00057     0.38069
      H   57    0.11362      0.00000     0.38587    0.00051     0.38638
      H   58    0.11117      0.00000     0.38769    0.00114     0.38883
      H   59    0.11129      0.00000     0.38788    0.00084     0.38871
      H   60    0.11463      0.00000     0.38434    0.00103     0.38537
      H   61    0.11757      0.00000     0.38181    0.00062     0.38243
      H   62    0.12026      0.00000     0.37927    0.00047     0.37974
      H   63    0.11220      0.00000     0.38717    0.00062     0.38780
      H   64    0.11620      0.00000     0.38317    0.00063     0.38380
      H   65    0.12075      0.00000     0.37845    0.00080     0.37925
      H   66    0.21306      0.00000     0.28619    0.00076     0.28694
      H   67    0.11515      0.00000     0.38394    0.00091     0.38485
      H   68    0.25541      0.00000     0.24348    0.00111     0.24459
      H   69    0.10829      0.00000     0.39089    0.00081     0.39171
      H   70    0.11409      0.00000     0.38523    0.00068     0.38591
      H   71    0.11483      0.00000     0.38446    0.00072     0.38517
      H   72    0.11782      0.00000     0.38140    0.00079     0.38218
      H   73    0.12002      0.00000     0.37871    0.00127     0.37998
      H   74    0.11132      0.00000     0.38784    0.00084     0.38868
      H   75    0.10874      0.00000     0.39031    0.00095     0.39126
      H   76    0.12004      0.00000     0.37934    0.00062     0.37996
      H   77    0.11820      0.00000     0.38115    0.00064     0.38180
      H   78    0.26191      0.00000     0.23691    0.00118     0.23809
      H   79    0.11095      0.00000     0.38842    0.00063     0.38905
      H   80    0.11328      0.00000     0.38603    0.00070     0.38672
      H   81    0.11477      0.00000     0.38452    0.00071     0.38523
      H   82    0.11460      0.00000     0.38471    0.00070     0.38540
      H   83    0.11215      0.00000     0.38711    0.00074     0.38785
      H   84    0.11155      0.00000     0.38783    0.00062     0.38845
      H   85    0.11862      0.00000     0.38026    0.00112     0.38138
      H   86    0.11636      0.00000     0.38239    0.00125     0.38364
      H   87    0.11572      0.00000     0.38361    0.00067     0.38428
      H   88    0.11551      0.00000     0.38379    0.00069     0.38449
      H   89    0.10992      0.00000     0.38943    0.00064     0.39008
      H   90    0.11922      0.00000     0.37967    0.00111     0.38078
      H   91    0.11667      0.00000     0.38268    0.00065     0.38333
      H   92    0.11621      0.00000     0.38312    0.00066     0.38379
      H   93    0.10900      0.00000     0.39041    0.00059     0.39100
      H   94    0.08098      0.00000     0.41826    0.00076     0.41902
      H   95    0.13182      0.00000     0.36759    0.00060     0.36818
      H   96    0.12132      0.00000     0.37818    0.00050     0.37868
      H   97    0.15536      0.00000     0.34404    0.00060     0.34464
      H   98    0.08008      0.00000     0.41912    0.00079     0.41992
      H   99    0.11349      0.00000     0.38587    0.00065     0.38651
      H  100    0.15048      0.00000     0.34908    0.00044     0.34952
      H  101    0.13323      0.00000     0.36629    0.00049     0.36677
 =======================================================================
   * Total *    3.00003     64.97252   136.39510    0.63234   201.99997

 Normal termination of Gaussian 16 at Fri Sep 30 14:19:41 2022.
