 Gaussian 16, Revision A.03,
 Gaussian 16:  ES64L-G16RevA.03 25-Dec-2016

 ----------------------------------------------------------------------
 # PBE1PBE/def2TZVP empiricaldispersion=GD3BJ scf=maxcycle=999 geom=che
 ck pop=nbo
 ----------------------------------------------------------------------

 ---------
 1hrc_II_Q
 ---------
 Structure from the checkpoint file:  "1hrc_II_Q.chk"
 Charge =  0 Multiplicity = 5

                         Standard orientation:
 ---------------------------------------------------------------------
 Center     Atomic      Atomic             Coordinates (Angstroms)
 Number     Number       Type             X           Y           Z
 ---------------------------------------------------------------------
      1          6           0        2.642834   -1.895760    4.972058
      2          6           0        1.853316   -1.355108    3.810748
      3          7           0        0.479928   -1.217990    3.904029
      4          6           0        2.203621   -0.951947    2.609410
      5          6           0        0.046710   -0.771455    2.687987
      6          7           0        1.075740   -0.582515    1.906615
      7          6           0       -0.857788    2.929897   -2.547235
      8          6           0        0.502389    2.157412   -2.526621
      9         16           0        0.324986    0.392981   -2.272802
     10          6           0        1.545230   -0.284456   -3.421113
     11         26           0        0.804155   -0.076535   -0.048002
     12          6           0       -2.674692    0.025225   -0.125072
     13          6           0        0.712643   -3.391592   -0.310979
     14          6           0        4.141500   -0.012262   -0.745658
     15          6           0        0.925975    3.118551    1.016369
     16          7           0       -0.714489   -1.390555   -0.140275
     17          6           0       -2.069221   -1.205432   -0.227295
     18          6           0       -2.673559   -2.498337   -0.541725
     19          6           0       -1.755435   -3.408609   -0.606944
     20          6           0       -0.483787   -2.752762   -0.364662
     21          6           0       -1.633357   -4.956017   -0.859426
     22          6           0       -4.219168   -2.657461   -0.723425
     23          6           0       -4.796593   -3.249718    0.628269
     24          6           0       -6.258763   -3.567668    0.615171
     25          8           0       -6.821763   -3.562758    1.763040
     26          8           0       -6.807076   -3.811403   -0.488724
     27          7           0        2.140777   -1.437147   -0.445604
     28          6           0        1.947435   -2.811263   -0.460850
     29          6           0        3.181204   -3.487251   -0.681681
     30          6           0        4.134179   -2.565393   -0.824466
     31          6           0        3.514456   -1.239692   -0.644053
     32          6           0        3.355679   -5.040939   -0.764406
     33          6           0        5.630678   -2.744187   -1.097873
     34          6           0        6.113936   -3.114881   -2.500953
     35          7           0        2.274771    1.324056    0.081992
     36          6           0        3.614784    1.168685   -0.247959
     37          6           0        4.317795    2.363111    0.090016
     38          6           0        3.428847    3.273978    0.571328
     39          6           0        2.139655    2.593163    0.614604
     40          6           0        5.842977    2.587277   -0.096677
     41          6           0        3.702188    4.667371    1.173216
     42          6           0        4.675366    5.609660    0.431142
     43          7           0       -0.559494    1.292989    0.391492
     44          6           0       -0.318610    2.570039    0.819674
     45          6           0       -1.598622    3.248593    0.967952
     46          6           0       -2.553423    2.413805    0.651602
     47          6           0       -1.956225    1.155040    0.252229
     48          6           0       -1.711328    4.717842    1.449936
     49          6           0       -4.093205    2.663530    0.657149
     50          6           0       -4.469333    3.322268   -0.678557
     51          6           0       -5.899871    3.724771   -0.870937
     52          8           0       -6.776375    3.471110   -0.043974
     53          8           0       -6.055118    4.300452   -1.972156
     54          1           0        2.358214   -2.910834    5.155133
     55          1           0        3.687323   -1.853862    4.743614
     56          1           0        2.444374   -1.307029    5.843213
     57          1           0       -0.085953   -1.408772    4.706140
     58          1           0       -0.974924   -0.603020    2.418184
     59          1           0        3.205633   -0.916071    2.235799
     60          1           0       -1.114263    3.227152   -1.551865
     61          1           0       -0.765664    3.797881   -3.166119
     62          1           0       -1.623777    2.293025   -2.937820
     63          1           0        1.000977    2.319497   -3.459380
     64          1           0        1.109176    2.555880   -1.740534
     65          1           0        1.773324   -1.292803   -3.145232
     66          1           0        1.148013   -0.267625   -4.414509
     67          1           0        2.436769    0.306000   -3.383428
     68          1           0        3.117097   -5.477578    0.182866
     69          1           0        2.700513   -5.434039   -1.513491
     70          1           0        4.368670   -5.273031   -1.019128
     71          1           0        0.691168   -4.446854   -0.135302
     72          1           0       -1.871789   -5.484079    0.040130
     73          1           0       -2.312582   -5.245733   -1.633776
     74          1           0       -0.632638   -5.191087   -1.156418
     75          1           0       -3.718998    0.115388   -0.340005
     76          1           0       -1.030678    4.880919    2.259269
     77          1           0       -1.470229    5.377509    0.642711
     78          1           0       -2.710863    4.909101    1.780467
     79          1           0        0.959037    4.053002    1.536569
     80          1           0        6.377479    1.746717    0.294049
     81          1           0        6.062529    2.696784   -1.138168
     82          1           0        6.139870    3.472795    0.425447
     83          1           0       -4.260689   -4.147251    0.856614
     84          1           0       -4.614912   -2.541032    1.409074
     85          1           0       -4.423353   -3.328673   -1.531313
     86          1           0       -4.662318   -1.703894   -0.921484
     87          1           0       -7.079462   -4.706893   -0.702037
     88          1           0       -5.432422    4.146315   -2.686362
     89          1           0       -3.865355    4.198140   -0.792395
     90          1           0       -4.213496    2.640504   -1.462549
     91          1           0       -4.610678    1.732675    0.760258
     92          1           0       -4.351769    3.313388    1.466921
     93          1           0        6.263186   -4.172837   -2.558857
     94          1           0        5.380045   -2.818283   -3.220907
     95          1           0        7.036637   -2.612839   -2.704611
     96          1           0        6.338494   -2.609674   -0.306796
     97          1           0        5.674705    5.240385    0.530430
     98          1           0        4.411594    5.650706   -0.605024
     99          1           0        4.613972    6.590664    0.853945
    100          1           0        3.229173    4.973860    2.082733
    101          1           0        5.090544    0.028471   -1.238159
 ---------------------------------------------------------------------

 SCF Done:  E(UPBE1PBE) =  -3880.53490848     A.U. after   61 cycles

 Alpha virt. eigenvalues --    1.03952   1.04192   1.04548   1.04733   1.05001
 Alpha virt. eigenvalues --    1.05418   1.05483   1.05643   1.06027   1.06357
 Alpha virt. eigenvalues --    1.06523   1.06850   1.07156   1.07274   1.07555

  Beta  occ. eigenvalues -- -256.31119 -89.00618 -30.05870 -25.89778 -25.88738
  Beta  occ. eigenvalues --  -25.87796 -19.26441 -19.26232 -19.18034 -19.17838
  Beta  occ. eigenvalues --  -14.43927 -14.37490 -14.37462 -14.37150 -14.36108
  Beta  occ. eigenvalues --  -14.36049 -10.35498 -10.34675 -10.27728 -10.25432
  Beta  occ. eigenvalues --  -10.24623 -10.24504 -10.24230 -10.24139 -10.24117
  Beta  occ. eigenvalues --  -10.23904 -10.23856 -10.23600 -10.23091 -10.22920
  Beta  occ. eigenvalues --  -10.22865 -10.22858 -10.22833 -10.22682 -10.22580
  Beta  occ. eigenvalues --  -10.22493 -10.22491 -10.22455 -10.22339 -10.22257
  Beta  occ. eigenvalues --  -10.21929 -10.21891 -10.21820 -10.21799 -10.21712
  Beta  occ. eigenvalues --  -10.21568 -10.21551 -10.21465 -10.21437 -10.21378
  Beta  occ. eigenvalues --  -10.21274 -10.21251 -10.21224 -10.21097 -10.20877
  Beta  occ. eigenvalues --  -10.20872 -10.20059  -7.98573  -5.92244  -5.91915
  Beta  occ. eigenvalues --   -5.91349  -3.38195  -2.16403  -2.12849  -2.10606
  Beta  occ. eigenvalues --   -1.17047  -1.16497  -1.05299  -1.03622  -1.01477
  Beta  occ. eigenvalues --   -0.97280  -0.96269  -0.96073  -0.95081  -0.90369
  Beta  occ. eigenvalues --   -0.83631  -0.83112  -0.82702  -0.82555  -0.81165
  Beta  occ. eigenvalues --   -0.80990  -0.80705  -0.80488  -0.80039  -0.78792
  Beta  occ. eigenvalues --   -0.78205  -0.76183  -0.75623  -0.75443  -0.75336
  Beta  occ. eigenvalues --   -0.73699  -0.72739  -0.72531  -0.71653  -0.71207
  Beta  occ. eigenvalues --   -0.69683  -0.69551  -0.69098  -0.67058  -0.66549
  Beta  occ. eigenvalues --   -0.66373  -0.65378  -0.64894  -0.64131  -0.61628
  Beta  occ. eigenvalues --   -0.61350  -0.61017  -0.59735  -0.59042  -0.57491
  Beta  occ. eigenvalues --   -0.56318  -0.55321  -0.54280  -0.54118  -0.53549
  Beta  occ. eigenvalues --   -0.52979  -0.51965  -0.51948  -0.51849  -0.51175
  Beta  occ. eigenvalues --   -0.50842  -0.50336  -0.48721  -0.48529  -0.48295
  Beta  occ. eigenvalues --   -0.48129  -0.47939  -0.47768  -0.47385  -0.47326
  Beta  occ. eigenvalues --   -0.46126  -0.45546  -0.45097  -0.44980  -0.44795
  Beta  occ. eigenvalues --   -0.44479  -0.44383  -0.44210  -0.44090  -0.43703
  Beta  occ. eigenvalues --   -0.43550  -0.43354  -0.43301  -0.42996  -0.42878
  Beta  occ. eigenvalues --   -0.42871  -0.42711  -0.42587  -0.42511  -0.42170
  Beta  occ. eigenvalues --   -0.41988  -0.41509  -0.41233  -0.40913  -0.40681
  Beta  occ. eigenvalues --   -0.40515  -0.40276  -0.40034  -0.39748  -0.39569
  Beta  occ. eigenvalues --   -0.39206  -0.38870  -0.38738  -0.38479  -0.38373
  Beta  occ. eigenvalues --   -0.38029  -0.37744  -0.37621  -0.37366  -0.37229
  Beta  occ. eigenvalues --   -0.36969  -0.36674  -0.36444  -0.36076  -0.35547
  Beta  occ. eigenvalues --   -0.35210  -0.34942  -0.34477  -0.34181  -0.33461
  Beta  occ. eigenvalues --   -0.33059  -0.32892  -0.32690  -0.32371  -0.31948
  Beta  occ. eigenvalues --   -0.31485  -0.31174  -0.30483  -0.29217  -0.28046
  Beta  occ. eigenvalues --   -0.27920  -0.27675  -0.27162  -0.25406  -0.25393
  Beta  occ. eigenvalues --   -0.24781  -0.24098  -0.23820  -0.23322  -0.19216
  Beta  occ. eigenvalues --   -0.18712  -0.18362  -0.15152
  Beta virt. eigenvalues --   -0.07618  -0.06898  -0.04007  -0.03596  -0.01963
  Beta virt. eigenvalues --   -0.00228   0.00391   0.00556   0.02212   0.02437
  Beta virt. eigenvalues --    0.02682   0.02804   0.03565   0.04309   0.04561

 Mulliken charges and spin densities:
               1          2
     1  C   -0.387731   0.001149
     2  C    0.197701   0.003710
     3  N   -0.236631   0.000549
     4  C   -0.227306   0.000461
     5  C    0.013205  -0.000643
     6  N    0.019355   0.036730
     7  C   -0.346887  -0.003113
     8  C   -0.154632   0.001792
     9  S    0.008264   0.063277
    10  C   -0.398221  -0.001840
    11  Fe  -0.358397   2.112601
    12  C   -0.453519  -0.020560
    13  C   -0.505136  -0.006956
    14  C   -0.536681   0.039561
    15  C   -0.439802  -0.011669
    16  N   -0.037342  -0.015337
    17  C    0.210683  -0.004827
    18  C    0.037844   0.004880
    19  C   -0.082366  -0.001579
    20  C    0.244386  -0.003416
    21  C   -0.397028   0.000617
    22  C   -0.314237   0.000455
    23  C   -0.199515  -0.000069
    24  C    0.286368   0.000002
    25  O   -0.359732  -0.000036
    26  O   -0.351615   0.000003
    27  N    0.052972  -0.012007
    28  C    0.239574  -0.010399
    29  C   -0.044108   0.037285
    30  C    0.080979  -0.107542
    31  C    0.151347  -0.015224
    32  C   -0.413051   0.001927
    33  C   -0.307286   1.062237
    34  C   -0.337083  -0.067670
    35  N   -0.040937   0.028142
    36  C    0.245090  -0.058062
    37  C   -0.066731   0.172439
    38  C    0.030383  -0.189994
    39  C    0.157695   0.026573
    40  C   -0.369248  -0.005712
    41  C   -0.266494   0.984762
    42  C   -0.313691  -0.066804
    43  N    0.095033  -0.041227
    44  C    0.215561   0.004223
    45  C   -0.106895  -0.007804
    46  C    0.122675   0.005364
    47  C    0.136071  -0.004878
    48  C   -0.419997   0.000411
    49  C   -0.303725  -0.000754
    50  C   -0.334939   0.000288
    51  C    0.329380   0.000089
    52  O   -0.343614  -0.000020
    53  O   -0.299576   0.000017
    54  H    0.138194   0.000231
    55  H    0.141234   0.000013
    56  H    0.134101   0.000065
    57  H    0.231112   0.002583
    58  H    0.173126   0.001234
    59  H    0.136502   0.001382
    60  H    0.130205   0.000594
    61  H    0.117178  -0.000009
    62  H    0.105099   0.001388
    63  H    0.126621   0.000970
    64  H    0.131982   0.003537
    65  H    0.156652   0.000610
    66  H    0.149325   0.002119
    67  H    0.140499   0.000253
    68  H    0.133985   0.000242
    69  H    0.138991  -0.000358
    70  H    0.136757  -0.000492
    71  H    0.142254   0.000116
    72  H    0.135116  -0.000288
    73  H    0.130272  -0.000088
    74  H    0.134249  -0.000115
    75  H    0.113368   0.000630
    76  H    0.136496  -0.000537
    77  H    0.141369  -0.000291
    78  H    0.133425  -0.000102
    79  H    0.096193   0.005844
    80  H    0.138158   0.003074
    81  H    0.130868   0.004615
    82  H    0.114251  -0.000575
    83  H    0.127840   0.000013
    84  H    0.138128   0.000061
    85  H    0.107447   0.000111
    86  H    0.121960  -0.000055
    87  H    0.355891   0.000014
    88  H    0.347960   0.000002
    89  H    0.150036   0.000009
    90  H    0.138935   0.000056
    91  H    0.127233  -0.000089
    92  H    0.132032   0.000066
    93  H    0.126873   0.047068
    94  H    0.133010   0.008646
    95  H    0.126053   0.015697
    96  H    0.135104  -0.049533
    97  H    0.113736   0.038849
    98  H    0.131675   0.025899
    99  H    0.124806   0.002421
   100  H    0.136738  -0.048021
   101  H    0.136547   0.000733
 Sum of Mulliken charges =  -0.00000   4.00000

 Dipole moment (field-independent basis, Debye):
    X=              6.3038    Y=             -2.7191    Z=             -1.8469  Tot=              7.1093
 Quadrupole moment (field-independent basis, Debye-Ang):
   XX=           -372.1152   YY=           -295.3339   ZZ=           -296.2457
   XY=             16.8376   XZ=             28.9133   YZ=             -3.2074

 Summary of Natural Population Analysis:

                                       Natural Population
                Natural  -----------------------------------------------
    Atom  No    Charge         Core      Valence    Rydberg      Total
 -----------------------------------------------------------------------
      C    1   -0.31750      0.99970     2.31475    0.00305     3.31750
      C    2    0.05422      0.99945     1.93704    0.00928     2.94578
      N    3   -0.25075      0.99971     2.74140    0.00964     3.75075
      C    4   -0.03834      0.99932     2.02889    0.01014     3.03834
      C    5    0.10400      0.99965     1.88572    0.01063     2.89600
      N    6   -0.15562      0.99971     2.62962    0.02630     3.65562
      C    7   -0.30649      0.99971     2.30298    0.00379     3.30649
      C    8   -0.27048      0.99966     2.26129    0.00954     3.27048
      S    9    0.30421      4.99923     2.67686    0.01970     7.69579
      C   10   -0.37295      0.99965     2.36431    0.00900     3.37295
     Fe   11    1.03108      8.99501     2.94765    0.02625    11.96892
      C   12   -0.13837      0.99945     2.12975    0.00917     3.13837
      C   13   -0.12875      0.99944     2.11980    0.00950     3.12875
      C   14   -0.11076      0.99947     2.10258    0.00871     3.11076
      C   15   -0.12815      0.99947     2.12010    0.00858     3.12815
      N   16   -0.19498      0.99970     2.67433    0.02094     3.69498
      C   17    0.07245      0.99953     1.91734    0.01068     2.92755
      C   18   -0.01810      0.99925     2.00871    0.01014     3.01810
      C   19   -0.02051      0.99923     2.01212    0.00916     3.02051
      C   20    0.07775      0.99950     1.91213    0.01062     2.92225
      C   21   -0.31586      0.99969     2.31271    0.00345     3.31586
      C   22   -0.20555      0.99969     2.19970    0.00617     3.20555
      C   23   -0.25302      0.99962     2.24478    0.00862     3.25302
      C   24    0.38206      0.99972     1.60098    0.01724     2.61794
      O   25   -0.28691      0.99990     3.27624    0.01077     4.28691
      O   26   -0.34151      0.99980     3.32724    0.01448     4.34151
      N   27   -0.17946      0.99969     2.65471    0.02506     3.67946
      C   28    0.05967      0.99949     1.92927    0.01157     2.94033
      C   29    0.00358      0.99930     1.98865    0.00846     2.99642
      C   30   -0.08351      0.99938     2.07388    0.01025     3.08351
      C   31    0.07010      0.99952     1.91949    0.01089     2.92990
      C   32   -0.31565      0.99970     2.31257    0.00338     3.31565
      C   33    0.44575      0.99973     1.54955    0.00497     2.55425
      C   34   -0.36156      0.99972     2.35846    0.00339     3.36156
      N   35   -0.17854      0.99971     2.65890    0.01993     3.67854
      C   36    0.03934      0.99951     1.95082    0.01032     2.96066
      C   37    0.06157      0.99938     1.93050    0.00855     2.93843
      C   38   -0.12051      0.99940     2.11151    0.00959     3.12051
      C   39    0.09879      0.99953     1.89141    0.01027     2.90121
      C   40   -0.31942      0.99970     2.31631    0.00341     3.31942
      C   41    0.39810      0.99973     1.59749    0.00468     2.60190
      C   42   -0.35643      0.99972     2.35335    0.00336     3.35643
      N   43   -0.20147      0.99968     2.67703    0.02475     3.70147
      C   44    0.07357      0.99952     1.91486    0.01205     2.92643
      C   45   -0.02312      0.99929     2.01432    0.00952     3.02312
      C   46   -0.01700      0.99927     2.00752    0.01020     3.01700
      C   47    0.06460      0.99951     1.92481    0.01108     2.93540
      C   48   -0.31785      0.99970     2.31446    0.00369     3.31785
      C   49   -0.20634      0.99968     2.19897    0.00769     3.20634
      C   50   -0.26204      0.99963     2.25351    0.00890     3.26204
      C   51    0.38325      0.99972     1.59952    0.01751     2.61675
      O   52   -0.28578      0.99988     3.27349    0.01240     4.28578
      O   53   -0.32033      0.99981     3.30560    0.01492     4.32033
      H   54    0.10955      0.00000     0.38973    0.00072     0.39045
      H   55    0.11591      0.00000     0.38361    0.00048     0.38409
      H   56    0.10874      0.00000     0.39054    0.00073     0.39126
      H   57    0.20740      0.00000     0.29178    0.00082     0.29260
      H   58    0.11334      0.00000     0.38576    0.00090     0.38666
      H   59    0.11361      0.00000     0.38563    0.00076     0.38639
      H   60    0.11081      0.00000     0.38837    0.00082     0.38919
      H   61    0.10299      0.00000     0.39633    0.00067     0.39701
      H   62    0.10472      0.00000     0.39431    0.00097     0.39528
      H   63    0.10903      0.00000     0.39024    0.00073     0.39097
      H   64    0.11722      0.00000     0.38146    0.00131     0.38278
      H   65    0.12106      0.00000     0.37844    0.00050     0.37894
      H   66    0.10779      0.00000     0.39159    0.00062     0.39221
      H   67    0.10997      0.00000     0.38902    0.00100     0.39003
      H   68    0.10825      0.00000     0.39097    0.00077     0.39175
      H   69    0.10829      0.00000     0.39096    0.00075     0.39171
      H   70    0.11057      0.00000     0.38876    0.00067     0.38943
      H   71    0.10819      0.00000     0.39058    0.00123     0.39181
      H   72    0.10733      0.00000     0.39187    0.00080     0.39267
      H   73    0.10793      0.00000     0.39129    0.00078     0.39207
      H   74    0.11061      0.00000     0.38862    0.00077     0.38939
      H   75    0.10981      0.00000     0.38888    0.00131     0.39019
      H   76    0.10915      0.00000     0.39015    0.00071     0.39085
      H   77    0.10887      0.00000     0.39032    0.00081     0.39113
      H   78    0.10867      0.00000     0.39058    0.00075     0.39133
      H   79    0.10943      0.00000     0.38924    0.00132     0.39057
      H   80    0.11082      0.00000     0.38848    0.00070     0.38918
      H   81    0.11069      0.00000     0.38861    0.00070     0.38931
      H   82    0.10781      0.00000     0.39145    0.00073     0.39219
      H   83    0.11714      0.00000     0.38221    0.00065     0.38286
      H   84    0.11985      0.00000     0.37946    0.00069     0.38015
      H   85    0.10789      0.00000     0.39124    0.00087     0.39211
      H   86    0.10581      0.00000     0.39350    0.00069     0.39419
      H   87    0.25985      0.00000     0.23892    0.00123     0.24015
      H   88    0.25127      0.00000     0.24776    0.00098     0.24873
      H   89    0.11198      0.00000     0.38726    0.00076     0.38802
      H   90    0.11013      0.00000     0.38902    0.00085     0.38987
      H   91    0.11206      0.00000     0.38715    0.00079     0.38794
      H   92    0.11339      0.00000     0.38584    0.00077     0.38661
      H   93    0.13116      0.00000     0.36824    0.00060     0.36884
      H   94    0.11345      0.00000     0.38590    0.00065     0.38655
      H   95    0.11673      0.00000     0.38270    0.00057     0.38327
      H   96    0.07523      0.00000     0.42386    0.00091     0.42477
      H   97    0.12330      0.00000     0.37598    0.00071     0.37670
      H   98    0.12192      0.00000     0.37755    0.00054     0.37808
      H   99    0.10907      0.00000     0.39036    0.00058     0.39093
      H  100    0.07876      0.00000     0.42046    0.00077     0.42124
      H  101    0.11194      0.00000     0.38708    0.00098     0.38806
 =======================================================================
   * Total *    2.00000     64.97318   137.41207    0.61474   203.00000

 Normal termination of Gaussian 16 at Thu Feb  9 11:28:51 2023.
