 Gaussian 16, Revision A.03,
 Gaussian 16:  ES64L-G16RevA.03 25-Dec-2016

 ---------------------------------------------------------------------
 # polar def2tzvp empiricaldispersion=gd3bj int=grid=ultrafine pbe1pbe
 ---------------------------------------------------------------------

 ---------
 1jp6_II_S
 ---------
 Symbolic Z-matrix:
 Charge =  0 Multiplicity = 1

                         Standard orientation:
 ---------------------------------------------------------------------
 Center     Atomic      Atomic             Coordinates (Angstroms)
 Number     Number       Type             X           Y           Z
 ---------------------------------------------------------------------
      1          6           0       -1.584205   -0.057152    5.370489
      2          6           0       -1.242066   -0.471764    3.973568
      3          7           0       -0.535866   -1.621002    3.694172
      4          6           0       -1.447994    0.141076    2.782630
      5          6           0       -0.316856   -1.696704    2.393819
      6          7           0       -0.859390   -0.640343    1.817736
      7         26           0       -0.766322    0.128867   -0.424672
      8          6           0        2.581493   -0.493736   -0.369636
      9          6           0       -1.355789   -3.166658   -1.095311
     10          6           0       -4.119473    0.756792   -0.533048
     11          6           0       -0.156752    3.390013    0.179876
     12          7           0        0.370110   -1.494202   -0.671496
     13          6           0        1.743426   -1.569620   -0.609168
     14          6           0        2.197858   -2.938607   -0.834561
     15          6           0        1.061533   -3.679167   -1.040661
     16          6           0       -0.046396   -2.791976   -0.942789
     17          6           0        0.951997   -5.163364   -1.322324
     18          6           0        3.620105   -3.362424   -0.823294
     19          6           0        4.005448   -4.166983    0.466937
     20          6           0        3.576569   -3.461056    1.726091
     21          8           0        4.149629   -2.428134    2.113617
     22          8           0        2.602098   -3.968465    2.377287
     23          7           0       -2.411712   -0.957573   -0.740316
     24          6           0       -2.458179   -2.321663   -1.005427
     25          6           0       -3.859484   -2.736871   -1.175466
     26          6           0       -4.618238   -1.651160   -1.017793
     27          6           0       -3.708626   -0.563278   -0.752238
     28          6           0       -4.262917   -4.155014   -1.473858
     29          6           0       -6.126238   -1.518125   -1.090390
     30          6           0       -6.795504   -1.977217   -2.175694
     31          7           0       -1.908643    1.766540   -0.205741
     32          6           0       -3.294525    1.844915   -0.283766
     33          6           0       -3.736045    3.196704   -0.081252
     34          6           0       -2.606563    3.923564    0.110480
     35          6           0       -1.485549    3.022443    0.037543
     36          6           0       -5.171943    3.626123   -0.106531
     37          6           0       -2.401352    5.384615    0.355273
     38          6           0       -3.468018    6.218686    0.411099
     39          7           0        0.898746    1.249813   -0.137454
     40          6           0        0.960598    2.584794    0.101315
     41          6           0        2.307849    3.023893    0.240636
     42          6           0        3.091120    1.908082    0.071172
     43          6           0        2.199071    0.798753   -0.156548
     44          6           0        2.758169    4.440458    0.504000
     45          6           0        4.593450    1.875612    0.099853
     46          6           0        5.055845    2.223391   -1.367659
     47          6           0        6.536559    2.258469   -1.601950
     48          8           0        7.265699    3.172814   -1.155872
     49          8           0        7.026668    1.325391   -2.297852
     50          8           0       -0.627854    0.797905   -2.584563
     51          1           0        0.159195    0.964561   -3.108375
     52          1           0       -0.378032    0.388338   -1.753032
     53          1           0       -1.970876    1.060948    2.623474
     54          1           0        0.210741   -2.481120    1.892587
     55          1           0       -0.235668   -2.293462    4.370692
     56          1           0       -1.698815    1.005994    5.409035
     57          1           0       -2.499230   -0.525531    5.667558
     58          1           0       -0.799153   -0.355525    6.033488
     59          1           0        4.675685   -1.911598    1.498755
     60          1           0        5.066859   -4.300563    0.488428
     61          1           0        3.535181   -5.127403    0.430281
     62          1           0        4.239406   -2.491992   -0.884247
     63          1           0        3.803226   -3.976880   -1.679921
     64          1           0        7.831249    3.669571   -1.751678
     65          1           0        4.632047    1.497721   -2.030001
     66          1           0        4.656533    3.182696   -1.622971
     67          1           0        4.965791    2.605982    0.787474
     68          1           0        4.936813    0.900001    0.374051
     69          1           0        2.768487    4.988147   -0.415146
     70          1           0        2.082894    4.907666    1.190018
     71          1           0        3.742317    4.429637    0.923804
     72          1           0        0.024830    4.426328    0.374761
     73          1           0        3.632090   -0.695595   -0.349658
     74          1           0        1.774824   -5.472259   -1.932603
     75          1           0        0.970039   -5.703891   -0.399066
     76          1           0        0.033751   -5.362426   -1.834278
     77          1           0       -1.547402   -4.198970   -1.301506
     78          1           0       -3.562544   -4.588943   -2.156561
     79          1           0       -4.273750   -4.721281   -0.566046
     80          1           0       -5.239415   -4.163532   -1.911212
     81          1           0       -5.172347    0.945500   -0.560328
     82          1           0       -5.503240    3.703601   -1.120996
     83          1           0       -5.769347    2.903891    0.409598
     84          1           0       -5.268235    4.577410    0.373760
     85          1           0       -1.412345    5.771383    0.486332
     86          1           0       -3.805138    6.716082   -0.474253
     87          1           0       -3.973086    6.379831    1.340528
     88          1           0       -6.662455   -1.061727   -0.284740
     89          1           0       -6.525360   -2.915459   -2.613443
     90          1           0       -7.594069   -1.401452   -2.594847
 ---------------------------------------------------------------------

 SCF Done:  E(RPBE1PBE) =  -3438.49353411     A.U. after   32 cycles

 The electronic state is 1-A.
 Alpha  occ. eigenvalues -- -256.33326 -30.09874 -25.92932 -25.92300 -25.92167
 Alpha  occ. eigenvalues --  -19.28051 -19.26580 -19.20259 -19.18016 -19.17643
 Alpha  occ. eigenvalues --  -14.44036 -14.38199 -14.37587 -14.37506 -14.37428
 Alpha  occ. eigenvalues --  -14.37093 -10.35818 -10.35675 -10.27233 -10.25597
 Alpha  occ. eigenvalues --  -10.24907 -10.24649 -10.24635 -10.24579 -10.24478
 Alpha  occ. eigenvalues --  -10.24409 -10.24243 -10.24222 -10.24215 -10.24139
 Alpha  occ. eigenvalues --  -10.24015 -10.23814 -10.23801 -10.23537 -10.23012
 Alpha  occ. eigenvalues --  -10.22676 -10.22474 -10.22431 -10.22406 -10.22309
 Alpha  occ. eigenvalues --  -10.22307 -10.22236 -10.22103 -10.22100 -10.21923
 Alpha  occ. eigenvalues --  -10.21898 -10.21721 -10.21719 -10.21523 -10.21409
 Alpha  occ. eigenvalues --  -10.21237 -10.20878 -10.20264 -10.19687  -3.45053
 Alpha  occ. eigenvalues --   -2.21923  -2.20187  -2.19809  -1.18202  -1.17341
 Alpha  occ. eigenvalues --   -1.05952  -1.04340  -1.02152  -1.01620  -0.98256
 Alpha  occ. eigenvalues --   -0.97336  -0.97142  -0.96198  -0.90026  -0.84620
 Alpha  occ. eigenvalues --   -0.84351  -0.83580  -0.82818  -0.82535  -0.81313
 Alpha  occ. eigenvalues --   -0.81026  -0.80982  -0.79461  -0.79010  -0.77608
 Alpha  occ. eigenvalues --   -0.76718  -0.75459  -0.74466  -0.73431  -0.72331
 Alpha  occ. eigenvalues --   -0.72231  -0.71568  -0.70357  -0.70150  -0.69546
 Alpha  occ. eigenvalues --   -0.67963  -0.66999  -0.65535  -0.65501  -0.63820
 Alpha  occ. eigenvalues --   -0.61704  -0.61189  -0.60492  -0.59387  -0.58183
 Alpha  occ. eigenvalues --   -0.57898  -0.56816  -0.55950  -0.55529  -0.54734
 Alpha  occ. eigenvalues --   -0.54063  -0.53957  -0.52712  -0.52488  -0.52044
 Alpha  occ. eigenvalues --   -0.51664  -0.51108  -0.50628  -0.49943  -0.49679
 Alpha  occ. eigenvalues --   -0.48805  -0.48512  -0.48068  -0.47609  -0.47192
 Alpha  occ. eigenvalues --   -0.46817  -0.45902  -0.45800  -0.45410  -0.45277
 Alpha  occ. eigenvalues --   -0.44988  -0.44916  -0.44177  -0.43992  -0.43809
 Alpha  occ. eigenvalues --   -0.43725  -0.43498  -0.43327  -0.43217  -0.43035
 Alpha  occ. eigenvalues --   -0.42918  -0.42657  -0.42460  -0.42315  -0.42211
 Alpha  occ. eigenvalues --   -0.42094  -0.41815  -0.41366  -0.41028  -0.40808
 Alpha  occ. eigenvalues --   -0.40532  -0.39914  -0.39575  -0.39431  -0.39269
 Alpha  occ. eigenvalues --   -0.39124  -0.38767  -0.38557  -0.38209  -0.38015
 Alpha  occ. eigenvalues --   -0.37710  -0.37584  -0.36912  -0.36727  -0.36380
 Alpha  occ. eigenvalues --   -0.36018  -0.35512  -0.35301  -0.33487  -0.33076
 Alpha  occ. eigenvalues --   -0.32847  -0.32605  -0.32155  -0.31459  -0.31349
 Alpha  occ. eigenvalues --   -0.30505  -0.29892  -0.28707  -0.28461  -0.27836
 Alpha  occ. eigenvalues --   -0.27544  -0.27275  -0.26869  -0.25421  -0.24857
 Alpha  occ. eigenvalues --   -0.23993  -0.22882  -0.22293  -0.21325  -0.20657
 Alpha  occ. eigenvalues --   -0.19437  -0.19236  -0.15456
 Alpha virt. eigenvalues --   -0.09723  -0.07120  -0.05920  -0.04311  -0.03035
 Alpha virt. eigenvalues --   -0.01950  -0.00495  -0.00109   0.00147   0.02902
 Alpha virt. eigenvalues --    0.03028   0.03623   0.03792   0.04287   0.04521

 Mulliken charges:
               1
     1  C   -0.381853
     2  C    0.159044
     3  N   -0.217788
     4  C   -0.189639
     5  C    0.029532
     6  N   -0.199161
     7  Fe  -0.246650
     8  C   -0.467000
     9  C   -0.478568
    10  C   -0.494418
    11  C   -0.515076
    12  N    0.008024
    13  C    0.316749
    14  C    0.012593
    15  C   -0.034907
    16  C    0.285297
    17  C   -0.430825
    18  C   -0.443593
    19  C   -0.188572
    20  C    0.300027
    21  O   -0.261985
    22  O   -0.418861
    23  N    0.020284
    24  C    0.241211
    25  C   -0.064404
    26  C   -0.003073
    27  C    0.278351
    28  C   -0.373524
    29  C   -0.241531
    30  C   -0.254226
    31  N   -0.018935
    32  C    0.304738
    33  C   -0.117105
    34  C   -0.017750
    35  C    0.295043
    36  C   -0.369909
    37  C   -0.076692
    38  C   -0.458942
    39  N    0.008591
    40  C    0.305424
    41  C   -0.099066
    42  C    0.009119
    43  C    0.215130
    44  C   -0.407136
    45  C   -0.340275
    46  C   -0.126939
    47  C    0.253927
    48  O   -0.345023
    49  O   -0.375990
    50  O   -0.483972
    51  H    0.329570
    52  H    0.238737
    53  H    0.144468
    54  H    0.197560
    55  H    0.237546
    56  H    0.145490
    57  H    0.143106
    58  H    0.128288
    59  H    0.337677
    60  H    0.132484
    61  H    0.129931
    62  H    0.161186
    63  H    0.134896
    64  H    0.358099
    65  H    0.142396
    66  H    0.116265
    67  H    0.135212
    68  H    0.096626
    69  H    0.144200
    70  H    0.137291
    71  H    0.127834
    72  H    0.080996
    73  H    0.046770
    74  H    0.129498
    75  H    0.156993
    76  H    0.129743
    77  H    0.106947
    78  H    0.130012
    79  H    0.142603
    80  H    0.110349
    81  H    0.116978
    82  H    0.135225
    83  H    0.131065
    84  H    0.149054
    85  H    0.127212
    86  H    0.141822
    87  H    0.150010
    88  H    0.137093
    89  H    0.123782
    90  H    0.135291
 Sum of Mulliken charges =  -0.00000

 Dipole moment (field-independent basis, Debye):
    X=              2.5475    Y=              0.0640    Z=              2.5444  Tot=              3.6011
 Quadrupole moment (field-independent basis, Debye-Ang):
   XX=           -274.8434   YY=           -280.0312   ZZ=           -287.9430
   XY=             20.2203   XZ=             -5.0938   YZ=              1.9554

  Exact polarizability: 813.328 -75.489 875.908  15.469  78.441 380.603
 Approx polarizability:1415.583-191.1451797.188  18.767 213.293 609.050

 Normal termination of Gaussian 16 at Fri Sep  9 20:47:45 2022.
