 Gaussian 16, Revision A.03,
 Gaussian 16:  ES64L-G16RevA.03 25-Dec-2016

 ---------------------------------------------------------------------
 # polar def2tzvp empiricaldispersion=gd3bj int=grid=ultrafine pbe1pbe
 ---------------------------------------------------------------------

 ---------
 1moh_II_S
 ---------
 Symbolic Z-matrix:
 Charge =  0 Multiplicity = 1

                         Standard orientation:
 ---------------------------------------------------------------------
 Center     Atomic      Atomic             Coordinates (Angstroms)
 Number     Number       Type             X           Y           Z
 ---------------------------------------------------------------------
      1          6           0       -1.521684    0.857729    5.186847
      2          6           0       -1.217927    0.227520    3.858695
      3          7           0       -0.739051   -1.062733    3.706006
      4          6           0       -1.289910    0.762400    2.606042
      5          6           0       -0.515280   -1.287220    2.410264
      6          7           0       -0.846880   -0.196457    1.739301
      7         26           0       -0.749404    0.028480   -0.395851
      8          6           0        2.505079   -0.598801   -0.398482
      9          6           0       -1.513651   -3.250170   -1.046968
     10          6           0       -4.024762    0.655920   -0.227105
     11          6           0       -0.120124    3.389553   -0.076013
     12          7           0        0.096673   -1.485813   -0.535815
     13          6           0        1.512418   -1.562347   -0.387692
     14          6           0        2.046480   -2.905817   -0.377076
     15          6           0        0.954606   -3.675202   -0.583803
     16          6           0       -0.222123   -2.829675   -0.709728
     17          6           0        1.017963   -5.199591   -0.774638
     18          6           0        3.541602   -3.388631   -0.436270
     19          6           0        3.734812   -4.039758    0.953805
     20          6           0        3.965339   -2.982984    2.011105
     21          8           0        5.068390   -2.391036    2.156173
     22          8           0        3.031720   -2.581872    2.712802
     23          7           0       -2.496216   -1.041867   -0.566975
     24          6           0       -2.556658   -2.324874   -0.966989
     25          6           0       -3.968634   -2.696014   -1.129410
     26          6           0       -4.744397   -1.698351   -0.719725
     27          6           0       -3.782140   -0.616213   -0.667646
     28          6           0       -4.157560   -4.157427   -1.549131
     29          6           0       -6.290002   -1.554873   -0.628516
     30          6           0       -7.076078   -2.438602   -1.224470
     31          7           0       -1.597561    1.466508   -0.231863
     32          6           0       -3.017075    1.594241   -0.214316
     33          6           0       -3.585125    2.905220   -0.033477
     34          6           0       -2.518988    3.706520   -0.087896
     35          6           0       -1.371202    2.835255   -0.230622
     36          6           0       -5.012212    3.465174   -0.221057
     37          6           0       -2.489446    5.259245    0.020911
     38          6           0       -3.230118    6.160962    0.724577
     39          7           0        0.850819    1.132406   -0.201202
     40          6           0        0.918332    2.501086   -0.131418
     41          6           0        2.320342    2.950847   -0.138520
     42          6           0        3.087427    1.836843   -0.082869
     43          6           0        2.167484    0.707608   -0.209248
     44          6           0        2.553876    4.459544    0.024329
     45          6           0        4.616728    1.741870    0.036565
     46          6           0        5.113973    1.965309   -1.426340
     47          6           0        6.602325    1.815463   -1.670925
     48          8           0        7.048784    0.679481   -1.979031
     49          8           0        7.343625    2.824925   -1.506459
     50         16           0       -0.695638    0.209185   -2.677536
     51          1           0       -0.950150    0.373095    5.950641
     52          1           0       -1.266673    1.896421    5.155431
     53          1           0       -2.564743    0.752877    5.401166
     54          1           0       -1.628507    1.744835    2.350948
     55          1           0       -0.133644   -2.192779    1.986924
     56          1           0       -0.586128   -1.718368    4.445437
     57          1           0       -0.389313   -0.832764   -3.410070
     58          1           0       -0.971199    1.354532   -3.250552
     59          1           0       -3.473013    5.970445    1.749080
     60          1           0       -3.568822    7.059534    0.252615
     61          1           0       -1.730188    5.712269   -0.581747
     62          1           0        0.028659    4.438160    0.076263
     63          1           0        3.563499    4.694825   -0.240635
     64          1           0        1.883345    4.995270   -0.614643
     65          1           0        2.377540    4.739981    1.041758
     66          1           0        4.907235    0.774266    0.389054
     67          1           0        4.991965    2.507830    0.682632
     68          1           0        4.604445    1.267688   -2.057692
     69          1           0        4.828929    2.952748   -1.724020
     70          1           0        8.286547    2.710438   -1.367208
     71          1           0        3.526704   -0.876436   -0.553724
     72          1           0        5.880057   -2.898837    2.226415
     73          1           0        4.579440   -4.695842    0.921290
     74          1           0        2.860198   -4.603269    1.203615
     75          1           0        3.677886   -4.108930   -1.215691
     76          1           0        4.204500   -2.558255   -0.562533
     77          1           0        1.576788   -5.636412    0.026487
     78          1           0        0.025807   -5.600239   -0.777390
     79          1           0        1.495385   -5.422932   -1.705814
     80          1           0       -1.697691   -4.257044   -1.358793
     81          1           0       -5.004372    0.923695    0.109883
     82          1           0       -5.724563    2.756864    0.147389
     83          1           0       -5.109199    4.383064    0.320213
     84          1           0       -5.191569    3.643535   -1.260729
     85          1           0       -3.779665   -4.800541   -0.781995
     86          1           0       -5.198719   -4.353889   -1.698430
     87          1           0       -3.626233   -4.338426   -2.460081
     88          1           0       -7.027488   -3.470817   -0.946854
     89          1           0       -7.759744   -2.120360   -1.983563
     90          1           0       -6.719372   -0.740532   -0.083181
 ---------------------------------------------------------------------

 SCF Done:  E(RPBE1PBE) =  -3761.33850587     A.U. after   22 cycles

 The electronic state is 1-A.
 Alpha  occ. eigenvalues -- -256.31116 -89.02618 -30.08656 -25.91559 -25.91179
 Alpha  occ. eigenvalues --  -25.90713 -19.26609 -19.25957 -19.17440 -19.17156
 Alpha  occ. eigenvalues --  -14.43952 -14.38409 -14.38217 -14.37558 -14.36170
 Alpha  occ. eigenvalues --  -14.35820 -10.34843 -10.34834 -10.27105 -10.25473
 Alpha  occ. eigenvalues --  -10.24262 -10.24084 -10.23810 -10.23569 -10.23428
 Alpha  occ. eigenvalues --  -10.23241 -10.23238 -10.23141 -10.22856 -10.22789
 Alpha  occ. eigenvalues --  -10.22709 -10.22693 -10.22602 -10.22534 -10.22496
 Alpha  occ. eigenvalues --  -10.22369 -10.21821 -10.21344 -10.21310 -10.21221
 Alpha  occ. eigenvalues --  -10.21128 -10.21062 -10.21026 -10.21017 -10.20940
 Alpha  occ. eigenvalues --  -10.20921 -10.20838 -10.20715 -10.20593 -10.20248
 Alpha  occ. eigenvalues --  -10.20181 -10.19827 -10.19822 -10.19714  -8.00950
 Alpha  occ. eigenvalues --   -5.94615  -5.94269  -5.93753  -3.43566  -2.19864
 Alpha  occ. eigenvalues --   -2.19599  -2.18214  -1.16632  -1.16335  -1.05275
 Alpha  occ. eigenvalues --   -1.02777  -1.01527  -0.97884  -0.96639  -0.95765
 Alpha  occ. eigenvalues --   -0.94647  -0.89970  -0.84241  -0.83059  -0.82460
 Alpha  occ. eigenvalues --   -0.82089  -0.81854  -0.80512  -0.80256  -0.79545
 Alpha  occ. eigenvalues --   -0.78913  -0.78007  -0.77345  -0.76995  -0.76257
 Alpha  occ. eigenvalues --   -0.74529  -0.73487  -0.72176  -0.71860  -0.71435
 Alpha  occ. eigenvalues --   -0.71161  -0.69242  -0.68981  -0.67707  -0.66929
 Alpha  occ. eigenvalues --   -0.64689  -0.64136  -0.63808  -0.63202  -0.61224
 Alpha  occ. eigenvalues --   -0.60400  -0.59849  -0.57996  -0.56897  -0.55712
 Alpha  occ. eigenvalues --   -0.55113  -0.54427  -0.54363  -0.53223  -0.53064
 Alpha  occ. eigenvalues --   -0.51633  -0.51421  -0.51002  -0.50701  -0.50399
 Alpha  occ. eigenvalues --   -0.50083  -0.49638  -0.49084  -0.48049  -0.47804
 Alpha  occ. eigenvalues --   -0.47436  -0.47299  -0.47103  -0.46967  -0.45928
 Alpha  occ. eigenvalues --   -0.45843  -0.45339  -0.45199  -0.44572  -0.44376
 Alpha  occ. eigenvalues --   -0.43995  -0.43651  -0.43494  -0.43374  -0.43133
 Alpha  occ. eigenvalues --   -0.42899  -0.42739  -0.42662  -0.42345  -0.42252
 Alpha  occ. eigenvalues --   -0.42042  -0.41966  -0.41584  -0.41410  -0.41031
 Alpha  occ. eigenvalues --   -0.40811  -0.40443  -0.40028  -0.39949  -0.39666
 Alpha  occ. eigenvalues --   -0.39393  -0.39000  -0.38726  -0.38466  -0.38302
 Alpha  occ. eigenvalues --   -0.37940  -0.37572  -0.37216  -0.37106  -0.36630
 Alpha  occ. eigenvalues --   -0.36320  -0.36104  -0.35952  -0.35199  -0.34361
 Alpha  occ. eigenvalues --   -0.33638  -0.32924  -0.32582  -0.32269  -0.31996
 Alpha  occ. eigenvalues --   -0.31773  -0.31253  -0.31089  -0.30562  -0.30105
 Alpha  occ. eigenvalues --   -0.28885  -0.28045  -0.27673  -0.27336  -0.27156
 Alpha  occ. eigenvalues --   -0.26895  -0.25455  -0.24682  -0.23722  -0.23153
 Alpha  occ. eigenvalues --   -0.22241  -0.20366  -0.20144  -0.18642  -0.18065
 Alpha  occ. eigenvalues --   -0.16988  -0.16840
 Alpha virt. eigenvalues --   -0.06298  -0.05844  -0.03857  -0.02301  -0.00371
 Alpha virt. eigenvalues --   -0.00237   0.00604   0.01601   0.02122   0.02373
 Alpha virt. eigenvalues --    0.03054   0.03390   0.03848   0.04707   0.05128

 Mulliken charges:
               1
     1  C   -0.379612
     2  C    0.140993
     3  N   -0.215226
     4  C   -0.186734
     5  C    0.030116
     6  N   -0.055427
     7  Fe  -0.389292
     8  C   -0.457082
     9  C   -0.492369
    10  C   -0.473285
    11  C   -0.433375
    12  N    0.088384
    13  C    0.309545
    14  C   -0.102295
    15  C   -0.032380
    16  C    0.119252
    17  C   -0.403401
    18  C   -0.159762
    19  C   -0.167997
    20  C    0.255880
    21  O   -0.328332
    22  O   -0.346485
    23  N   -0.013498
    24  C    0.241530
    25  C   -0.084361
    26  C   -0.058757
    27  C    0.289834
    28  C   -0.382373
    29  C   -0.186014
    30  C   -0.306296
    31  N    0.081005
    32  C    0.260345
    33  C   -0.083585
    34  C    0.071010
    35  C    0.118939
    36  C   -0.333432
    37  C   -0.257471
    38  C   -0.320466
    39  N    0.078146
    40  C    0.247724
    41  C   -0.075817
    42  C   -0.089572
    43  C    0.257570
    44  C   -0.377455
    45  C   -0.329968
    46  C   -0.159462
    47  C    0.270927
    48  O   -0.400697
    49  O   -0.333126
    50  S   -0.303377
    51  H    0.123801
    52  H    0.148214
    53  H    0.144001
    54  H    0.155668
    55  H    0.178720
    56  H    0.231713
    57  H    0.190381
    58  H    0.183904
    59  H    0.132451
    60  H    0.139507
    61  H    0.117478
    62  H    0.130328
    63  H    0.126483
    64  H    0.138189
    65  H    0.141396
    66  H    0.136082
    67  H    0.130531
    68  H    0.144670
    69  H    0.121201
    70  H    0.342142
    71  H    0.105400
    72  H    0.337262
    73  H    0.110220
    74  H    0.100923
    75  H    0.128926
    76  H    0.125817
    77  H    0.122382
    78  H    0.126203
    79  H    0.135627
    80  H    0.130699
    81  H    0.085325
    82  H    0.112769
    83  H    0.143297
    84  H    0.131011
    85  H    0.140818
    86  H    0.113214
    87  H    0.133520
    88  H    0.141059
    89  H    0.139016
    90  H    0.137234
 Sum of Mulliken charges =  -0.00000

 Dipole moment (field-independent basis, Debye):
    X=              3.0600    Y=             -2.1190    Z=              2.7272  Tot=              4.6143
 Quadrupole moment (field-independent basis, Debye-Ang):
   XX=           -277.8980   YY=           -276.7534   ZZ=           -285.6361
   XY=             -4.4628   XZ=              6.6503   YZ=             -5.8595

  Exact polarizability: 820.638  -7.916 765.971  13.577  57.521 385.962
 Approx polarizability:1368.843 -28.5671428.236  19.628 123.227 613.183

 Normal termination of Gaussian 16 at Sat Sep 10 07:22:04 2022.
