 Gaussian 16, Revision A.03,
 Gaussian 16:  ES64L-G16RevA.03 25-Dec-2016

 ---------------------------------------------------------------------
 # polar def2tzvp empiricaldispersion=gd3bj int=grid=ultrafine pbe1pbe
 ---------------------------------------------------------------------

 ---------
 1mz4_II_S
 ---------
 Symbolic Z-matrix:
 Charge =  0 Multiplicity = 1

                         Standard orientation:
 ---------------------------------------------------------------------
 Center     Atomic      Atomic             Coordinates (Angstroms)
 Number     Number       Type             X           Y           Z
 ---------------------------------------------------------------------
      1          6           0        2.652192   -1.957398    4.905315
      2          6           0        1.789343   -1.366360    3.832160
      3          7           0        0.441607   -1.127899    4.000253
      4          6           0        2.074424   -1.016065    2.555177
      5          6           0       -0.066117   -0.662861    2.872670
      6          7           0        0.905473   -0.585140    1.979037
      7          6           0       -0.055051    2.968785   -4.406324
      8          6           0        0.293411    1.782913   -3.561356
      9          7           0        1.249874    0.862793   -3.931495
     10          6           0       -0.092036    1.446560   -2.308206
     11          6           0        1.443232    0.011381   -2.936084
     12          7           0        0.644178    0.345284   -1.938674
     13         26           0        0.791272   -0.077071    0.030868
     14          6           0       -2.649261   -0.034497    0.169966
     15          6           0        0.725411   -3.410312   -0.799558
     16          6           0        4.249295   -0.088037   -0.242435
     17          6           0        0.876277    3.175938    1.054961
     18          7           0       -0.647628   -1.420887   -0.225797
     19          6           0       -2.020364   -1.237068   -0.128632
     20          6           0       -2.731694   -2.463914   -0.432595
     21          6           0       -1.791109   -3.393654   -0.732185
     22          6           0       -0.501005   -2.761774   -0.575488
     23          6           0       -2.055322   -4.824121   -1.201637
     24          6           0       -4.253555   -2.697707   -0.428760
     25          6           0       -4.713412   -3.029972    0.990584
     26          6           0       -6.162927   -3.484724    1.055693
     27          8           0       -6.637765   -3.806183    2.167351
     28          8           0       -6.827140   -3.523508    0.001140
     29          7           0        2.175277   -1.431872   -0.433122
     30          6           0        1.974124   -2.780763   -0.723170
     31          6           0        3.228971   -3.442531   -1.000435
     32          6           0        4.233911   -2.516470   -0.914547
     33          6           0        3.570057   -1.267481   -0.536002
     34          6           0        3.395761   -4.934778   -1.271595
     35          6           0        5.614432   -2.740927   -1.115335
     36          6           0        6.122297   -3.177362   -2.346920
     37          7           0        2.237811    1.245441    0.305584
     38          6           0        3.619158    1.091168    0.152940
     39          6           0        4.331136    2.286766    0.563021
     40          6           0        3.396461    3.199510    0.939554
     41          6           0        2.094374    2.552540    0.770617
     42          6           0        5.853329    2.447297    0.667483
     43          6           0        3.627666    4.458675    1.520303
     44          6           0        4.272384    5.471069    0.828936
     45          7           0       -0.583293    1.266834    0.519718
     46          6           0       -0.373569    2.585845    0.911266
     47          6           0       -1.630891    3.294715    1.052810
     48          6           0       -2.619234    2.406522    0.763364
     49          6           0       -1.975535    1.142253    0.472328
     50          6           0       -1.814787    4.747132    1.486482
     51          6           0       -4.107158    2.694720    0.611916
     52          6           0       -4.369233    3.222769   -0.792767
     53          6           0       -5.839362    3.463725   -1.063135
     54          8           0       -6.527767    2.550615   -1.575160
     55          8           0       -6.306151    4.574090   -0.750179
     56          1           0       -0.435413    2.635463   -5.349256
     57          1           0       -0.799081    3.555037   -3.908703
     58          1           0        0.820313    3.563345   -4.564875
     59          1           0       -0.831187    1.944324   -1.715933
     60          1           0        1.722983    0.841416   -4.812240
     61          1           0        2.130627   -0.808606   -2.939110
     62          1           0        3.660597   -2.026828    4.554319
     63          1           0        2.619001   -1.333249    5.773782
     64          1           0        2.293094   -2.934148    5.154128
     65          1           0       -0.071653   -1.282865    4.844379
     66          1           0       -1.089178   -0.394796    2.710228
     67          1           0        3.033293   -1.066015    2.082975
     68          1           0        6.107721   -4.246752   -2.379950
     69          1           0        5.518679   -2.787773   -3.139868
     70          1           0        7.128131   -2.830679   -2.460979
     71          1           0        3.620992    5.857844    0.073295
     72          1           0        4.535984    6.254882    1.507944
     73          1           0        5.158214    5.082543    0.371494
     74          1           0        3.297233    4.639601    2.521792
     75          1           0        6.291617   -2.572965   -0.304095
     76          1           0        6.217721    2.962870   -0.196405
     77          1           0        6.093264    3.009275    1.545841
     78          1           0        6.310633    1.481707    0.725870
     79          1           0        5.316103   -0.086535   -0.325000
     80          1           0        3.963307   -5.073136   -2.168059
     81          1           0        3.908451   -5.391308   -0.450845
     82          1           0        2.432489   -5.386342   -1.386034
     83          1           0        0.703795   -4.451749   -1.044184
     84          1           0       -1.522290   -5.005059   -2.111603
     85          1           0       -1.724947   -5.512318   -0.451878
     86          1           0       -3.103680   -4.956334   -1.370052
     87          1           0        0.908550    4.184641    1.410457
     88          1           0       -3.719050   -0.013489    0.166826
     89          1           0       -2.344054    5.282178    0.725889
     90          1           0       -2.372757    4.778999    2.398926
     91          1           0       -0.856417    5.198030    1.638535
     92          1           0       -4.000073    2.512308   -1.502602
     93          1           0       -3.839943    4.144073   -0.919063
     94          1           0       -6.543949    2.438753   -2.528483
     95          1           0       -4.664110    1.794175    0.765943
     96          1           0       -4.405247    3.428029    1.331846
     97          1           0       -4.491054   -3.512281   -1.080652
     98          1           0       -4.751305   -1.813053   -0.767186
     99          1           0       -4.091176   -3.808461    1.380041
    100          1           0       -4.598636   -2.159200    1.601716
    101          1           0       -6.379295   -3.542759   -0.847779
 ---------------------------------------------------------------------

 SCF Done:  E(RPBE1PBE) =  -3628.78620959     A.U. after   31 cycles

 The electronic state is 1-A.
 Alpha  occ. eigenvalues -- -256.30527 -30.07598 -25.90408 -25.90154 -25.89868
 Alpha  occ. eigenvalues --  -19.26910 -19.25651 -19.18301 -19.16684 -14.44623
 Alpha  occ. eigenvalues --  -14.44221 -14.38599 -14.38339 -14.37157 -14.36880
 Alpha  occ. eigenvalues --  -14.36551 -14.36017 -10.35198 -10.34663 -10.27858
 Alpha  occ. eigenvalues --  -10.27439 -10.25887 -10.25485 -10.24403 -10.24268
 Alpha  occ. eigenvalues --  -10.24238 -10.24187 -10.24165 -10.24043 -10.23987
 Alpha  occ. eigenvalues --  -10.23946 -10.23817 -10.23110 -10.23083 -10.23061
 Alpha  occ. eigenvalues --  -10.22996 -10.22736 -10.22724 -10.22639 -10.22213
 Alpha  occ. eigenvalues --  -10.22054 -10.22014 -10.21788 -10.21694 -10.21659
 Alpha  occ. eigenvalues --  -10.21491 -10.21339 -10.21145 -10.21073 -10.21036
 Alpha  occ. eigenvalues --  -10.21016 -10.20904 -10.20848 -10.20663 -10.20485
 Alpha  occ. eigenvalues --  -10.20469 -10.20304 -10.19967 -10.19851  -3.41974
 Alpha  occ. eigenvalues --   -2.17870  -2.17477  -2.17047  -1.17252  -1.16693
 Alpha  occ. eigenvalues --   -1.06424  -1.06082  -1.03109  -1.01880  -0.96461
 Alpha  occ. eigenvalues --   -0.95457  -0.95170  -0.94150  -0.90759  -0.90381
 Alpha  occ. eigenvalues --   -0.84186  -0.83764  -0.83467  -0.82916  -0.82198
 Alpha  occ. eigenvalues --   -0.81450  -0.81006  -0.80131  -0.79741  -0.78824
 Alpha  occ. eigenvalues --   -0.78345  -0.77395  -0.76987  -0.74328  -0.73628
 Alpha  occ. eigenvalues --   -0.72701  -0.72473  -0.72223  -0.71678  -0.71103
 Alpha  occ. eigenvalues --   -0.69907  -0.69465  -0.68510  -0.66907  -0.66268
 Alpha  occ. eigenvalues --   -0.64840  -0.64712  -0.64600  -0.64261  -0.62297
 Alpha  occ. eigenvalues --   -0.62215  -0.61840  -0.61721  -0.58309  -0.56651
 Alpha  occ. eigenvalues --   -0.56553  -0.56235  -0.55995  -0.54838  -0.53820
 Alpha  occ. eigenvalues --   -0.53754  -0.53229  -0.52494  -0.51911  -0.51527
 Alpha  occ. eigenvalues --   -0.50851  -0.50605  -0.50004  -0.49244  -0.48919
 Alpha  occ. eigenvalues --   -0.48317  -0.48124  -0.47995  -0.47722  -0.47465
 Alpha  occ. eigenvalues --   -0.47440  -0.46823  -0.46400  -0.45837  -0.45643
 Alpha  occ. eigenvalues --   -0.45269  -0.44976  -0.44929  -0.44476  -0.44199
 Alpha  occ. eigenvalues --   -0.43884  -0.43828  -0.43654  -0.43560  -0.43340
 Alpha  occ. eigenvalues --   -0.43139  -0.43031  -0.43006  -0.42837  -0.42731
 Alpha  occ. eigenvalues --   -0.42641  -0.42397  -0.42275  -0.42024  -0.41951
 Alpha  occ. eigenvalues --   -0.41290  -0.41087  -0.40952  -0.40297  -0.40012
 Alpha  occ. eigenvalues --   -0.39813  -0.39506  -0.39147  -0.39094  -0.38923
 Alpha  occ. eigenvalues --   -0.38663  -0.38403  -0.38228  -0.37896  -0.37652
 Alpha  occ. eigenvalues --   -0.37241  -0.36975  -0.36687  -0.36483  -0.36054
 Alpha  occ. eigenvalues --   -0.35769  -0.35249  -0.34834  -0.34257  -0.34186
 Alpha  occ. eigenvalues --   -0.33467  -0.33265  -0.32547  -0.32024  -0.31879
 Alpha  occ. eigenvalues --   -0.31689  -0.31484  -0.31383  -0.30181  -0.28917
 Alpha  occ. eigenvalues --   -0.27976  -0.27452  -0.27309  -0.26752  -0.25220
 Alpha  occ. eigenvalues --   -0.24760  -0.24134  -0.24062  -0.23732  -0.22965
 Alpha  occ. eigenvalues --   -0.19645  -0.18677  -0.18415  -0.18121  -0.17536
 Alpha  occ. eigenvalues --   -0.12877
 Alpha virt. eigenvalues --   -0.10449  -0.06007  -0.05756  -0.01843  -0.00129
 Alpha virt. eigenvalues --    0.01073   0.01698   0.01956   0.02217   0.02486
 Alpha virt. eigenvalues --    0.02595   0.03038   0.04244   0.04382   0.04525

 Mulliken charges:
               1
     1  C   -0.385959
     2  C    0.167958
     3  N   -0.218883
     4  C   -0.201226
     5  C    0.009542
     6  N    0.089865
     7  C   -0.385563
     8  C    0.114099
     9  N   -0.210199
    10  C   -0.122077
    11  C    0.022209
    12  N    0.037747
    13  Fe  -0.403864
    14  C   -0.556258
    15  C   -0.525214
    16  C   -0.589809
    17  C   -0.543680
    18  N    0.054635
    19  C    0.216704
    20  C    0.067284
    21  C   -0.096863
    22  C    0.223322
    23  C   -0.389900
    24  C   -0.473664
    25  C   -0.165213
    26  C    0.268902
    27  O   -0.372028
    28  O   -0.267663
    29  N   -0.043162
    30  C    0.318415
    31  C   -0.076854
    32  C    0.088016
    33  C    0.124569
    34  C   -0.391725
    35  C   -0.331868
    36  C   -0.310326
    37  N    0.040061
    38  C    0.344534
    39  C   -0.066529
    40  C    0.044522
    41  C    0.213273
    42  C   -0.434209
    43  C   -0.348879
    44  C   -0.275541
    45  N   -0.062455
    46  C    0.324943
    47  C   -0.070465
    48  C   -0.014949
    49  C    0.231896
    50  C   -0.389690
    51  C   -0.326828
    52  C   -0.186429
    53  C    0.311299
    54  O   -0.359728
    55  O   -0.336058
    56  H    0.132039
    57  H    0.141400
    58  H    0.139080
    59  H    0.155911
    60  H    0.228151
    61  H    0.177401
    62  H    0.144697
    63  H    0.133641
    64  H    0.136801
    65  H    0.229799
    66  H    0.171960
    67  H    0.155289
    68  H    0.126419
    69  H    0.121598
    70  H    0.126256
    71  H    0.135943
    72  H    0.113945
    73  H    0.123771
    74  H    0.132231
    75  H    0.123775
    76  H    0.140109
    77  H    0.139017
    78  H    0.124664
    79  H    0.094470
    80  H    0.126472
    81  H    0.132976
    82  H    0.115926
    83  H    0.108150
    84  H    0.139214
    85  H    0.142738
    86  H    0.109132
    87  H    0.099617
    88  H    0.101706
    89  H    0.132288
    90  H    0.138617
    91  H    0.125677
    92  H    0.102305
    93  H    0.123442
    94  H    0.353997
    95  H    0.123505
    96  H    0.133298
    97  H    0.111631
    98  H    0.143256
    99  H    0.137820
   100  H    0.132351
   101  H    0.337476
 Sum of Mulliken charges =  -0.00000

 Dipole moment (field-independent basis, Debye):
    X=              5.8703    Y=             -0.4728    Z=             -5.3544  Tot=              7.9595
 Quadrupole moment (field-independent basis, Debye-Ang):
   XX=           -375.4580   YY=           -338.7708   ZZ=           -275.4537
   XY=              2.9016   XZ=             31.7813   YZ=              2.0798

  Exact polarizability: 908.974 -41.3831008.728 -37.594 154.803 494.711
 Approx polarizability:1870.839********6379.421-438.4561938.6521345.091

 Normal termination of Gaussian 16 at Mon Apr  3 03:20:19 2023.
