 Gaussian 16, Revision A.03,
 Gaussian 16:  ES64L-G16RevA.03 25-Dec-2016

 ----------------------------------------------------------------------
 # PBE1PBE/def2TZVP empiricaldispersion=GD3BJ int=(grid=ultrafine) geom
 =check pop=nbo
 ----------------------------------------------------------------------

 ----------
 1nsi_III_H
 ----------
 Structure from the checkpoint file:  "1nsi_III_H.chk"
 Charge =  1 Multiplicity = 6

                         Standard orientation:
 ---------------------------------------------------------------------
 Center     Atomic      Atomic             Coordinates (Angstroms)
 Number     Number       Type             X           Y           Z
 ---------------------------------------------------------------------
      1          6           0        0.482793    0.900315    3.602364
      2         16           0        1.453364   -0.179138    2.552631
      3          6           0       -2.286643   -0.070617    0.721968
      4          6           0        1.114024   -3.446392    0.402323
      5          6           0        4.145897   -0.099652   -1.042394
      6          6           0        1.008312    3.318595    0.221160
      7          6           0       -1.649705   -1.272704    0.627219
      8          6           0       -2.357679   -2.525856    0.569728
      9          6           0       -1.395731   -3.488733    0.607133
     10          6           0       -0.107914   -2.810871    0.587063
     11          6           0       -1.630996   -4.998196    0.667829
     12          6           0       -3.846021   -2.747069    0.310651
     13          6           0       -4.324452   -2.284257   -1.070039
     14          6           0       -5.716677   -2.798965   -1.424469
     15          8           0       -6.230844   -3.673127   -0.696361
     16          8           0       -6.295988   -2.335664   -2.432468
     17          6           0        2.313421   -2.821186    0.100693
     18          6           0        3.533980   -3.501969   -0.313198
     19          6           0        4.370816   -2.553825   -0.748418
     20          6           0        3.675950   -1.291885   -0.605551
     21          6           0        3.847644   -4.975579   -0.232980
     22          6           0        5.609250   -2.790811   -1.275369
     23          6           0        6.756966   -2.350939   -0.705118
     24          6           0        3.518488    1.110306   -0.861828
     25          6           0        4.124278    2.383378   -1.211913
     26          6           0        3.256838    3.345159   -0.803906
     27          6           0        2.137205    2.657317   -0.210701
     28          6           0        5.489191    2.554719   -1.849032
     29          6           0        3.314811    4.724424   -0.886558
     30          6           0        4.511535    5.345286   -1.024218
     31          6           0       -0.148089    2.687440    0.585216
     32          6           0       -1.424106    3.365964    0.717924
     33          6           0       -2.349624    2.407951    0.693386
     34          6           0       -1.659275    1.139075    0.665085
     35          6           0       -1.692418    4.841866    0.936089
     36          6           0       -3.831104    2.638570    0.581210
     37          6           0       -4.393340    2.381011   -0.812257
     38          6           0       -5.895274    2.559035   -0.869957
     39          8           0       -6.456653    3.115721    0.091491
     40          8           0       -6.521448    2.140493   -1.866221
     41          7           0       -0.275502   -1.448508    0.589689
     42          7           0        2.433301   -1.448847   -0.036151
     43          7           0        2.305392    1.274170   -0.230379
     44          7           0       -0.283645    1.300242    0.593228
     45         26           0        1.133022   -0.075088    0.368487
     46          1           0       -0.558351    0.726770    3.426860
     47          1           0        0.709992    0.698764    4.628355
     48          1           0        0.717022    1.920163    3.378874
     49          1           0        2.329011   -1.007490    3.065639
     50          1           0       -7.322996    3.513134   -0.023019
     51          1           0       -3.937433    3.061554   -1.500668
     52          1           0       -4.152010    1.380031   -1.103289
     53          1           0       -4.329444    1.993063    1.273943
     54          1           0       -4.038897    3.653237    0.849858
     55          1           0       -7.181609   -1.973756   -2.353111
     56          1           0       -4.338861   -1.214502   -1.087830
     57          1           0       -3.631684   -2.631511   -1.807865
     58          1           0       -4.055042   -3.791869    0.408644
     59          1           0       -4.401729   -2.217924    1.056369
     60          1           0       -3.349012   -0.076871    0.849384
     61          1           0       -2.488086   -5.249558    0.078664
     62          1           0       -0.772388   -5.508698    0.284320
     63          1           0       -1.797167   -5.292734    1.682981
     64          1           0       -2.702980    4.976453    1.260975
     65          1           0       -1.024668    5.219312    1.682108
     66          1           0       -1.538999    5.371619    0.019179
     67          1           0        1.038583    4.386832    0.274585
     68          1           0        1.130220   -4.511647    0.501664
     69          1           0        3.136502   -5.523799   -0.814901
     70          1           0        4.831900   -5.151979   -0.613797
     71          1           0        3.796977   -5.296032    0.786649
     72          1           0        5.600975    3.563818   -2.186851
     73          1           0        6.249182    2.333354   -1.129094
     74          1           0        5.580774    1.887918   -2.680830
     75          1           0        5.077467   -0.099049   -1.568776
     76          1           0        6.726243   -1.569445    0.025103
     77          1           0        7.694028   -2.785069   -0.985019
     78          1           0        5.675925   -3.351951   -2.183981
     79          1           0        2.414791    5.301366   -0.841817
     80          1           0        4.576460    6.409054   -0.928914
     81          1           0        5.391483    4.771722   -1.228215
 ---------------------------------------------------------------------

 SCF Done:  E(UPBE1PBE) =  -3535.28074542     A.U. after   29 cycles

 Alpha virt. eigenvalues --    0.24966   0.25113   0.25165   0.25555   0.25659
 Alpha virt. eigenvalues --    0.25890   0.26132   0.26392   0.26797   0.27261
 Alpha virt. eigenvalues --    0.27532   0.27743   0.27775   0.28031   0.28225

  Beta  occ. eigenvalues -- -256.56040 -89.16054 -30.29444 -26.12880 -26.12507
  Beta  occ. eigenvalues --  -26.12400 -19.34895 -19.32386 -19.25211 -19.24840
  Beta  occ. eigenvalues --  -14.50039 -14.49914 -14.49838 -14.49046 -10.43276
  Beta  occ. eigenvalues --  -10.42433 -10.37293 -10.37156 -10.36773 -10.36720
  Beta  occ. eigenvalues --  -10.36691 -10.36654 -10.36636 -10.36631 -10.36221
  Beta  occ. eigenvalues --  -10.33783 -10.33773 -10.33727 -10.33349 -10.33298
  Beta  occ. eigenvalues --  -10.33194 -10.33172 -10.32814 -10.32777 -10.32775
  Beta  occ. eigenvalues --  -10.32707 -10.32670 -10.32243 -10.32186 -10.32047
  Beta  occ. eigenvalues --  -10.32002 -10.31583 -10.31513 -10.31335 -10.31150
  Beta  occ. eigenvalues --  -10.31134 -10.30901 -10.30790 -10.30319  -8.14409
  Beta  occ. eigenvalues --   -6.08064  -6.07727  -6.07197  -3.58968  -2.34181
  Beta  occ. eigenvalues --   -2.33089  -2.32996  -1.25638  -1.23337  -1.10574
  Beta  occ. eigenvalues --   -1.10127  -1.09513  -1.09501  -1.09051  -1.08047
  Beta  occ. eigenvalues --   -0.96094  -0.95829  -0.95274  -0.94830  -0.94589
  Beta  occ. eigenvalues --   -0.93236  -0.93055  -0.92282  -0.90123  -0.88588
  Beta  occ. eigenvalues --   -0.88188  -0.87549  -0.87307  -0.84762  -0.83084
  Beta  occ. eigenvalues --   -0.82686  -0.82331  -0.81090  -0.80403  -0.79570
  Beta  occ. eigenvalues --   -0.78655  -0.77236  -0.76883  -0.75175  -0.73716
  Beta  occ. eigenvalues --   -0.72874  -0.72512  -0.70674  -0.69535  -0.66975
  Beta  occ. eigenvalues --   -0.66615  -0.65974  -0.65135  -0.63601  -0.63357
  Beta  occ. eigenvalues --   -0.62892  -0.61440  -0.61306  -0.61101  -0.60202
  Beta  occ. eigenvalues --   -0.60053  -0.59862  -0.59293  -0.58668  -0.58155
  Beta  occ. eigenvalues --   -0.57740  -0.57516  -0.57344  -0.57039  -0.56302
  Beta  occ. eigenvalues --   -0.56029  -0.55930  -0.55426  -0.55284  -0.55068
  Beta  occ. eigenvalues --   -0.54609  -0.54303  -0.54161  -0.53774  -0.53376
  Beta  occ. eigenvalues --   -0.53177  -0.52746  -0.52421  -0.52216  -0.52105
  Beta  occ. eigenvalues --   -0.51777  -0.51558  -0.51465  -0.51042  -0.50460
  Beta  occ. eigenvalues --   -0.50332  -0.50066  -0.49768  -0.49306  -0.49160
  Beta  occ. eigenvalues --   -0.48836  -0.48437  -0.48105  -0.47928  -0.47625
  Beta  occ. eigenvalues --   -0.47401  -0.46940  -0.46515  -0.46276  -0.45665
  Beta  occ. eigenvalues --   -0.45587  -0.45140  -0.44603  -0.44405  -0.43582
  Beta  occ. eigenvalues --   -0.42671  -0.42200  -0.40686  -0.40111  -0.39929
  Beta  occ. eigenvalues --   -0.39566  -0.38659  -0.38396  -0.36948  -0.35404
  Beta  occ. eigenvalues --   -0.35342  -0.34876  -0.34335  -0.33669  -0.31476
  Beta  occ. eigenvalues --   -0.30073
  Beta virt. eigenvalues --   -0.23247  -0.21955  -0.20210  -0.19030  -0.17664
  Beta virt. eigenvalues --   -0.17082  -0.12672  -0.11056  -0.10636  -0.09960
  Beta virt. eigenvalues --   -0.09253  -0.07618  -0.07482  -0.07016  -0.06871

 Mulliken charges and spin densities:
               1          2
     1  C   -0.325413   0.017457
     2  S   -0.064074   0.118731
     3  C   -0.517122  -0.005146
     4  C   -0.428791  -0.002693
     5  C   -0.428202  -0.009391
     6  C   -0.396094  -0.002574
     7  C    0.379929   0.010407
     8  C   -0.050063   0.019374
     9  C   -0.019567   0.016811
    10  C    0.281727   0.014671
    11  C   -0.380092   0.000478
    12  C   -0.334511  -0.000299
    13  C   -0.186056   0.000709
    14  C    0.277674   0.000091
    15  O   -0.348125   0.000037
    16  O   -0.332505   0.000032
    17  C    0.193459   0.014256
    18  C   -0.034039   0.030973
    19  C    0.121261   0.028743
    20  C    0.220939   0.014673
    21  C   -0.381521  -0.001422
    22  C   -0.340533  -0.006478
    23  C   -0.244657   0.011358
    24  C    0.285534   0.014942
    25  C   -0.112474   0.026465
    26  C    0.062577   0.026470
    27  C    0.270368   0.015759
    28  C   -0.377690  -0.000826
    29  C   -0.158282  -0.013148
    30  C   -0.229868   0.029546
    31  C    0.095938   0.014805
    32  C    0.032470   0.021452
    33  C    0.046939   0.025830
    34  C    0.274680   0.010795
    35  C   -0.383745  -0.000780
    36  C   -0.328538  -0.001093
    37  C   -0.192272   0.001165
    38  C    0.258625   0.000067
    39  O   -0.315149  -0.000003
    40  O   -0.369786   0.000283
    41  N   -0.046457   0.067657
    42  N   -0.024530   0.061134
    43  N   -0.033690   0.068746
    44  N   -0.072965   0.058713
    45  Fe  -0.135401   4.266644
    46  H    0.173669   0.000409
    47  H    0.188833   0.001216
    48  H    0.172375   0.000970
    49  H    0.200550   0.020832
    50  H    0.355096   0.000014
    51  H    0.140872  -0.000001
    52  H    0.146067   0.000070
    53  H    0.138478   0.000815
    54  H    0.099417   0.000528
    55  H    0.366602   0.000013
    56  H    0.100615  -0.000005
    57  H    0.140243   0.000001
    58  H    0.159592   0.000343
    59  H    0.130858   0.000532
    60  H    0.157662  -0.000137
    61  H    0.154818   0.000568
    62  H    0.131472   0.000034
    63  H    0.160700   0.000770
    64  H    0.145851   0.000358
    65  H    0.145515   0.000675
    66  H    0.157316   0.001186
    67  H    0.135816   0.000316
    68  H    0.148259   0.000054
    69  H    0.150747   0.001234
    70  H    0.157120   0.000438
    71  H    0.149036   0.001427
    72  H    0.134976   0.000566
    73  H    0.164866   0.001151
    74  H    0.149120   0.000686
    75  H    0.173700   0.000415
    76  H    0.147700  -0.000443
    77  H    0.155222  -0.000309
    78  H    0.160895   0.001662
    79  H    0.122268   0.000644
    80  H    0.146682  -0.001211
    81  H    0.127082  -0.001245
 Sum of Mulliken charges =   1.00000   5.00000

 Dipole moment (field-independent basis, Debye):
    X=              6.1628    Y=              3.8999    Z=              4.5956  Tot=              8.6203
 Quadrupole moment (field-independent basis, Debye-Ang):
   XX=           -193.2315   YY=           -207.0573   ZZ=           -256.1785
   XY=            -33.6277   XZ=            -14.9812   YZ=              5.3900

 Summary of Natural Population Analysis:

                                       Natural Population
                Natural  -----------------------------------------------
    Atom  No    Charge         Core      Valence    Rydberg      Total
 -----------------------------------------------------------------------
      C    1   -0.34738      0.99962     2.33998    0.00778     3.34738
      S    2    0.21694      4.99904     2.76248    0.02154     7.78306
      C    3   -0.11604      0.99944     2.10793    0.00866     3.11604
      C    4   -0.10982      0.99949     2.10283    0.00749     3.10982
      C    5   -0.11286      0.99945     2.10515    0.00826     3.11286
      C    6   -0.11224      0.99946     2.10511    0.00767     3.11224
      C    7    0.08702      0.99948     1.90367    0.00983     2.91298
      C    8    0.00451      0.99941     1.98702    0.00906     2.99549
      C    9    0.01239      0.99944     1.98011    0.00807     2.98761
      C   10    0.08842      0.99952     1.90223    0.00982     2.91158
      C   11   -0.31971      0.99969     2.31635    0.00367     3.31971
      C   12   -0.21496      0.99966     2.20777    0.00753     3.21496
      C   13   -0.25017      0.99962     2.24247    0.00808     3.25017
      C   14    0.38488      0.99977     1.59745    0.01790     2.61512
      O   15   -0.29279      0.99989     3.28087    0.01202     4.29279
      O   16   -0.33190      0.99980     3.31792    0.01419     4.33190
      C   17    0.08851      0.99953     1.90254    0.00943     2.91149
      C   18    0.03032      0.99942     1.96221    0.00805     2.96968
      C   19   -0.02881      0.99939     2.01854    0.01088     3.02881
      C   20    0.09794      0.99949     1.89230    0.01027     2.90206
      C   21   -0.32344      0.99970     2.31778    0.00597     3.32344
      C   22   -0.11715      0.99956     2.10745    0.01013     3.11715
      C   23   -0.15930      0.99964     2.15229    0.00737     3.15930
      C   24    0.09095      0.99952     1.89992    0.00961     2.90905
      C   25    0.02904      0.99946     1.96354    0.00796     2.97096
      C   26   -0.02951      0.99945     2.02009    0.00997     3.02951
      C   27    0.10237      0.99951     1.88827    0.00984     2.89763
      C   28   -0.32163      0.99968     2.31808    0.00386     3.32163
      C   29   -0.11918      0.99956     2.11044    0.00917     3.11918
      C   30   -0.14112      0.99965     2.13568    0.00579     3.14112
      C   31    0.08457      0.99949     1.90624    0.00970     2.91543
      C   32    0.01109      0.99937     1.98101    0.00853     2.98891
      C   33    0.00464      0.99938     1.98660    0.00938     2.99536
      C   34    0.08632      0.99949     1.90424    0.00994     2.91368
      C   35   -0.32101      0.99969     2.31533    0.00598     3.32101
      C   36   -0.21667      0.99967     2.20973    0.00727     3.21667
      C   37   -0.24527      0.99962     2.23724    0.00841     3.24527
      C   38    0.38029      0.99977     1.60159    0.01836     2.61971
      O   39   -0.32337      0.99981     3.31021    0.01335     4.32337
      O   40   -0.30157      0.99989     3.28944    0.01225     4.30157
      N   41   -0.18473      0.99969     2.66636    0.01868     3.68473
      N   42   -0.18116      0.99968     2.66347    0.01800     3.68116
      N   43   -0.17910      0.99967     2.66205    0.01738     3.67910
      N   44   -0.18951      0.99971     2.67133    0.01847     3.68951
     Fe   45    2.35485      8.99343     1.63059    0.02112    10.64515
      H   46    0.12466      0.00000     0.37477    0.00056     0.37534
      H   47    0.12779      0.00000     0.37181    0.00041     0.37221
      H   48    0.12361      0.00000     0.37585    0.00054     0.37639
      H   49    0.10971      0.00000     0.38847    0.00181     0.39029
      H   50    0.26078      0.00000     0.23787    0.00135     0.23922
      H   51    0.12230      0.00000     0.37707    0.00062     0.37770
      H   52    0.11773      0.00000     0.38146    0.00081     0.38227
      H   53    0.11207      0.00000     0.38717    0.00076     0.38793
      H   54    0.11444      0.00000     0.38472    0.00083     0.38556
      H   55    0.26297      0.00000     0.23585    0.00117     0.23703
      H   56    0.11019      0.00000     0.38899    0.00082     0.38981
      H   57    0.11944      0.00000     0.37989    0.00067     0.38056
      H   58    0.12583      0.00000     0.37337    0.00081     0.37417
      H   59    0.11254      0.00000     0.38672    0.00075     0.38746
      H   60    0.11481      0.00000     0.38402    0.00117     0.38519
      H   61    0.11771      0.00000     0.38162    0.00066     0.38229
      H   62    0.11009      0.00000     0.38930    0.00061     0.38991
      H   63    0.11841      0.00000     0.38091    0.00068     0.38159
      H   64    0.11446      0.00000     0.38493    0.00061     0.38554
      H   65    0.11619      0.00000     0.38326    0.00056     0.38381
      H   66    0.11721      0.00000     0.38217    0.00062     0.38279
      H   67    0.11646      0.00000     0.38255    0.00099     0.38354
      H   68    0.11619      0.00000     0.38268    0.00113     0.38381
      H   69    0.11700      0.00000     0.38242    0.00058     0.38300
      H   70    0.11925      0.00000     0.38019    0.00056     0.38075
      H   71    0.11812      0.00000     0.38130    0.00058     0.38188
      H   72    0.11353      0.00000     0.38568    0.00079     0.38647
      H   73    0.11856      0.00000     0.38071    0.00073     0.38144
      H   74    0.11703      0.00000     0.38232    0.00065     0.38297
      H   75    0.12104      0.00000     0.37783    0.00113     0.37896
      H   76    0.09854      0.00000     0.40064    0.00082     0.40146
      H   77    0.10676      0.00000     0.39263    0.00061     0.39324
      H   78    0.11396      0.00000     0.38493    0.00111     0.38604
      H   79    0.10798      0.00000     0.39123    0.00079     0.39202
      H   80    0.10468      0.00000     0.39469    0.00062     0.39532
      H   81    0.09325      0.00000     0.40584    0.00091     0.40675
 =======================================================================
   * Total *    3.00000     56.97472   113.51975    0.50553   171.00000

 Normal termination of Gaussian 16 at Wed Dec 14 21:52:36 2022.
