 Gaussian 16, Revision A.03,
 Gaussian 16:  ES64L-G16RevA.03 25-Dec-2016

 ----------------------------------------------------------------------
 # PBE1PBE/def2TZVP empiricaldispersion=GD3BJ int=(grid=ultrafine) geom
 =check pop=nbo
 ----------------------------------------------------------------------

 ---------
 1qpu_II_Q
 ---------
 Structure from the checkpoint file:  "1qpu_II_Q.chk"
 Charge =  0 Multiplicity = 5

                         Standard orientation:
 ---------------------------------------------------------------------
 Center     Atomic      Atomic             Coordinates (Angstroms)
 Number     Number       Type             X           Y           Z
 ---------------------------------------------------------------------
      1          6           0        1.825752    1.252355   -3.086128
      2          6           0        1.072856   -0.076888   -2.980033
      3         16           0       -0.585717    0.082651   -2.258544
      4          6           0       -1.628464   -1.060936   -3.185511
      5          1           0        2.798313    1.079553   -3.497423
      6          1           0        1.922062    1.686380   -2.112862
      7          1           0        0.945707   -0.443544   -3.996958
      8          1           0        1.667100   -0.806443   -2.433499
      9          1           0       -1.540405   -0.814697   -4.243691
     10          1           0       -1.322463   -2.090490   -3.012380
     11          1           0       -2.664881   -0.917830   -2.881459
     12          6           0       -1.977414   -1.100435    5.408808
     13          6           0       -1.484939   -0.518347    4.102313
     14          7           0       -0.620788    0.546696    4.063641
     15          6           0       -1.814848   -0.836854    2.805355
     16          6           0       -0.447308    0.880897    2.782705
     17          7           0       -1.120563    0.052896    1.966974
     18          1           0       -2.597910   -0.384887    5.906679
     19          1           0       -1.140219   -1.340335    6.030461
     20          1           0       -0.341983    1.091086    4.866984
     21          1           0       -2.490618   -1.616519    2.488413
     22          1           0        0.158643    1.717861    2.478881
     23          6           0        2.282875   -0.649626    0.218819
     24          6           0       -0.180020    3.497667   -0.067466
     25          6           0       -4.304226    0.845468   -0.325393
     26          6           0       -1.742306   -3.326906   -0.152844
     27          6           0        1.939749    0.658979    0.232795
     28          6           0        2.921456    1.683261    0.383036
     29          6           0        2.254750    2.865283    0.265184
     30          6           0        0.846805    2.574813    0.081558
     31          6           0        2.975545    4.151039    0.295799
     32          6           0        4.404935    1.419180    0.535877
     33          6           0        5.497493    2.318467   -0.083888
     34          6           0        6.880410    2.020923    0.467145
     35          8           0        7.834465    2.127103   -0.331112
     36          8           0        6.959555    1.746295    1.684795
     37          6           0       -1.523782    3.106942   -0.161928
     38          6           0       -2.621504    4.018632   -0.378982
     39          6           0       -3.773804    3.263782   -0.449087
     40          6           0       -3.391737    1.889955   -0.282770
     41          6           0       -2.441251    5.486181   -0.635844
     42          6           0       -5.201396    3.684581   -0.685696
     43          6           0       -5.528694    5.166449   -0.680472
     44          6           0       -3.949460   -0.501653   -0.280428
     45          6           0       -4.895900   -1.583832   -0.299036
     46          6           0       -4.190791   -2.767708   -0.272216
     47          6           0       -2.792824   -2.409419   -0.200375
     48          6           0       -6.370809   -1.371547   -0.155660
     49          6           0       -4.742565   -4.179894   -0.288919
     50          6           0       -6.129119   -4.356305   -0.903264
     51          6           0       -0.418234   -2.914098   -0.105400
     52          6           0        0.734324   -3.786411   -0.095803
     53          6           0        1.840490   -3.010932    0.033151
     54          6           0        1.399861   -1.662631    0.058408
     55          6           0        0.837412   -5.259024   -0.177488
     56          6           0        3.250818   -3.445904    0.325546
     57          6           0        4.110100   -3.488562   -0.922239
     58          6           0        5.417540   -2.759492   -0.721118
     59          8           0        5.628473   -1.801759   -1.493029
     60          8           0        6.130999   -3.135153    0.231962
     61          7           0        0.727846    1.220159    0.077713
     62          7           0       -2.051753    1.844920   -0.110924
     63          7           0       -2.718290   -1.033871   -0.192189
     64          7           0        0.063509   -1.632881   -0.047847
     65         26           0       -1.018939    0.150369   -0.005700
     66          1           0        0.075072    4.543025   -0.111256
     67          1           0       -5.340214    1.118064   -0.432865
     68          1           0       -1.951486   -4.385104   -0.152369
     69          1           0        3.323438   -0.899125    0.279691
     70          1           0        3.480991    4.198865   -0.668603
     71          1           0        2.342439    5.007450    0.508034
     72          1           0        3.712627    3.982789    1.080008
     73          1           0        4.471443    0.694863   -0.223704
     74          1           0        4.652499    0.830191    1.439153
     75          1           0        5.344420    3.378278    0.027153
     76          1           0        5.514732    2.115821   -1.160325
     77          1           0       -1.598312    5.554278   -1.312171
     78          1           0       -3.292357    5.956507   -1.118765
     79          1           0       -2.200802    6.006918    0.286644
     80          1           0       -6.769641   -0.912327   -1.056347
     81          1           0       -6.913134   -2.281234    0.071009
     82          1           0       -6.456310   -0.683448    0.682002
     83          1           0        0.823853   -5.533137   -1.228122
     84          1           0        1.818200   -5.449986    0.269763
     85          1           0        0.049440   -5.749940    0.375896
     86          1           0        3.423164   -4.264495    0.988734
     87          1           0        3.637755   -2.749194    1.018136
     88          1           0        3.582229   -2.929352   -1.681898
     89          1           0        4.276615   -4.517951   -1.241859
     90          1           0        6.359481   -4.063019    0.323935
     91          1           0        8.001145    1.434598   -0.974738
     92          1           0       -5.210578    5.787468   -1.491667
     93          1           0       -6.982858   -3.915208   -0.432665
     94          1           0        1.282956    1.919922   -3.722231
     95          1           0       -2.542460   -1.987817    5.213421
     96          1           0       -6.247104   -4.921034   -1.804408
     97          1           0       -4.191055   -5.006609    0.107667
     98          1           0       -6.077576    5.590242    0.134407
     99          1           0       -5.966410    2.955537   -0.853465
 ---------------------------------------------------------------------

 SCF Done:  E(UPBE1PBE) =  -3879.18478713     A.U. after   88 cycles

 Alpha virt. eigenvalues --    1.02572   1.02834   1.03125   1.03215   1.03797
 Alpha virt. eigenvalues --    1.03827   1.04179   1.04355   1.04486   1.04745
 Alpha virt. eigenvalues --    1.05121   1.05340   1.05855   1.06021   1.06334

  Beta  occ. eigenvalues -- -256.39861 -89.03794 -30.16169 -25.99251 -25.98997
  Beta  occ. eigenvalues --  -25.98323 -19.27737 -19.25350 -19.19323 -19.17892
  Beta  occ. eigenvalues --  -14.46587 -14.42364 -14.37701 -14.37351 -14.37183
  Beta  occ. eigenvalues --  -14.36791 -10.36227 -10.35001 -10.30245 -10.27916
  Beta  occ. eigenvalues --  -10.25800 -10.25544 -10.24744 -10.24457 -10.24201
  Beta  occ. eigenvalues --  -10.24193 -10.24094 -10.24052 -10.23749 -10.23176
  Beta  occ. eigenvalues --  -10.23102 -10.22941 -10.22748 -10.22685 -10.22582
  Beta  occ. eigenvalues --  -10.22539 -10.22479 -10.22401 -10.21716 -10.21605
  Beta  occ. eigenvalues --  -10.21353 -10.20878 -10.20862 -10.20766 -10.20726
  Beta  occ. eigenvalues --  -10.20711 -10.20640 -10.20590 -10.20574 -10.20469
  Beta  occ. eigenvalues --  -10.20465 -10.20399 -10.20359 -10.20029 -10.19861
  Beta  occ. eigenvalues --  -10.19369 -10.19339  -8.01631  -5.95283  -5.95013
  Beta  occ. eigenvalues --   -5.94463  -3.48603  -2.24228  -2.23632  -2.23230
  Beta  occ. eigenvalues --   -1.18287  -1.16302  -1.07464  -1.04418  -1.02582
  Beta  occ. eigenvalues --   -0.98533  -0.97377  -0.97325  -0.96249  -0.92723
  Beta  occ. eigenvalues --   -0.84568  -0.84228  -0.83389  -0.82746  -0.82160
  Beta  occ. eigenvalues --   -0.80803  -0.80411  -0.79969  -0.79652  -0.79047
  Beta  occ. eigenvalues --   -0.78431  -0.77121  -0.75044  -0.74752  -0.73642
  Beta  occ. eigenvalues --   -0.72853  -0.72633  -0.72316  -0.70441  -0.69957
  Beta  occ. eigenvalues --   -0.69468  -0.69086  -0.68293  -0.67776  -0.67317
  Beta  occ. eigenvalues --   -0.66548  -0.65342  -0.64892  -0.64281  -0.63634
  Beta  occ. eigenvalues --   -0.61100  -0.59850  -0.59046  -0.58211  -0.58095
  Beta  occ. eigenvalues --   -0.57667  -0.55582  -0.54739  -0.54289  -0.53640
  Beta  occ. eigenvalues --   -0.53256  -0.52683  -0.52121  -0.51505  -0.51306
  Beta  occ. eigenvalues --   -0.50867  -0.50152  -0.49661  -0.49403  -0.48907
  Beta  occ. eigenvalues --   -0.48727  -0.48365  -0.47826  -0.47764  -0.47459
  Beta  occ. eigenvalues --   -0.46844  -0.46338  -0.45619  -0.45241  -0.44988
  Beta  occ. eigenvalues --   -0.44885  -0.44686  -0.44436  -0.44357  -0.44174
  Beta  occ. eigenvalues --   -0.43958  -0.43709  -0.43453  -0.43203  -0.43127
  Beta  occ. eigenvalues --   -0.42991  -0.42851  -0.42436  -0.42205  -0.41857
  Beta  occ. eigenvalues --   -0.41483  -0.41226  -0.40906  -0.40838  -0.40474
  Beta  occ. eigenvalues --   -0.40226  -0.40116  -0.39784  -0.39684  -0.39261
  Beta  occ. eigenvalues --   -0.38954  -0.38809  -0.38686  -0.38450  -0.38229
  Beta  occ. eigenvalues --   -0.37964  -0.37794  -0.37438  -0.36971  -0.36656
  Beta  occ. eigenvalues --   -0.36522  -0.36302  -0.36024  -0.35803  -0.35129
  Beta  occ. eigenvalues --   -0.34749  -0.34569  -0.34298  -0.34128  -0.33853
  Beta  occ. eigenvalues --   -0.33623  -0.33209  -0.32572  -0.31939  -0.31365
  Beta  occ. eigenvalues --   -0.30356  -0.29937  -0.28422  -0.28163  -0.27925
  Beta  occ. eigenvalues --   -0.27516  -0.27167  -0.26912  -0.25567  -0.25253
  Beta  occ. eigenvalues --   -0.24676  -0.23520  -0.22667  -0.22048  -0.18689
  Beta  occ. eigenvalues --   -0.18204  -0.16374
  Beta virt. eigenvalues --   -0.08759  -0.06875  -0.05628  -0.04926  -0.03208
  Beta virt. eigenvalues --   -0.02511  -0.02310  -0.01760  -0.00997  -0.00670
  Beta virt. eigenvalues --    0.00204   0.00897   0.01581   0.01726   0.03007

 Mulliken charges and spin densities:
               1          2
     1  C   -0.328920  -0.000022
     2  C   -0.167936  -0.006322
     3  S    0.040325  -0.015204
     4  C   -0.394135  -0.000023
     5  H    0.120812  -0.000044
     6  H    0.138240   0.000552
     7  H    0.131247  -0.001249
     8  H    0.139867   0.000912
     9  H    0.155607  -0.000601
    10  H    0.153190   0.000041
    11  H    0.179530   0.000007
    12  C   -0.391745  -0.000201
    13  C    0.164673  -0.000193
    14  N   -0.209689  -0.000816
    15  C   -0.203222   0.002598
    16  C    0.029342   0.003511
    17  N    0.121728  -0.041950
    18  H    0.142194   0.000043
    19  H    0.139297  -0.000031
    20  H    0.247951  -0.000029
    21  H    0.165002  -0.000149
    22  H    0.183723  -0.000638
    23  C   -0.386777  -0.060089
    24  C   -0.597630   0.238105
    25  C   -0.532274  -0.032673
    26  C   -0.603655   0.219679
    27  C    0.118368   0.123865
    28  C    0.036132  -0.021160
    29  C    0.024153   0.095579
    30  C    0.217533  -0.036539
    31  C   -0.478450  -0.007656
    32  C   -0.271821  -0.000278
    33  C   -0.286856  -0.000501
    34  C    0.315686   0.000012
    35  O   -0.350531   0.000006
    36  O   -0.341750  -0.000022
    37  C    0.244184  -0.109101
    38  C   -0.100114   0.348923
    39  C   -0.037870  -0.227501
    40  C    0.253561   0.083829
    41  C   -0.345657  -0.024584
    42  C   -0.111377   0.769311
    43  C   -0.326521   1.044819
    44  C    0.178644   0.106923
    45  C   -0.058959  -0.041167
    46  C    0.019375   0.221904
    47  C    0.227374  -0.056363
    48  C   -0.371359  -0.004262
    49  C   -0.223810  -0.753470
    50  C   -0.304527   1.020911
    51  C    0.280134  -0.049672
    52  C   -0.025914   0.068728
    53  C   -0.064126  -0.053156
    54  C    0.104149   0.094881
    55  C   -0.411660  -0.004437
    56  C   -0.362833   0.003240
    57  C   -0.228921  -0.000177
    58  C    0.314412  -0.000359
    59  O   -0.374076  -0.000321
    60  O   -0.313741   0.000004
    61  N   -0.056751  -0.046475
    62  N    0.113978   0.082317
    63  N   -0.054404  -0.057222
    64  N    0.011013   0.016127
    65  Fe  -0.253152   1.191720
    66  H    0.119218  -0.012426
    67  H    0.108685   0.002295
    68  H    0.096752  -0.013990
    69  H    0.132006   0.002159
    70  H    0.149909   0.005539
    71  H    0.124735   0.001065
    72  H    0.153833   0.002649
    73  H    0.129672  -0.000182
    74  H    0.163472   0.000246
    75  H    0.139481  -0.000013
    76  H    0.116419   0.000199
    77  H    0.129741   0.014783
    78  H    0.102765  -0.001216
    79  H    0.131822   0.017451
    80  H    0.127554  -0.000372
    81  H    0.108926  -0.001890
    82  H    0.125325   0.003523
    83  H    0.136191   0.003676
    84  H    0.116269   0.000397
    85  H    0.125178   0.002599
    86  H    0.133574  -0.000686
    87  H    0.159113  -0.000639
    88  H    0.131250   0.000145
    89  H    0.121561   0.000438
    90  H    0.354528   0.000023
    91  H    0.360844   0.000012
    92  H    0.141509  -0.016586
    93  H    0.121872  -0.053904
    94  H    0.115044   0.000613
    95  H    0.150302   0.000018
    96  H    0.128797  -0.057208
    97  H    0.130333   0.051696
    98  H    0.138777  -0.020448
    99  H    0.134282  -0.013859
 Sum of Mulliken charges =  -0.00000   4.00000

 Dipole moment (field-independent basis, Debye):
    X=              2.3735    Y=             -2.3330    Z=              2.0940  Tot=              3.9321
 Quadrupole moment (field-independent basis, Debye-Ang):
   XX=           -348.5790   YY=           -307.6936   ZZ=           -291.0233
   XY=            -36.8605   XZ=            -24.3345   YZ=             -3.3239

 Summary of Natural Population Analysis:

                                       Natural Population
                Natural  -----------------------------------------------
    Atom  No    Charge         Core      Valence    Rydberg      Total
 -----------------------------------------------------------------------
      C    1   -0.30617      0.99971     2.30072    0.00574     3.30617
      C    2   -0.26308      0.99966     2.25422    0.00920     3.26308
      S    3    0.28260      4.99917     2.69589    0.02234     7.71740
      C    4   -0.37280      0.99967     2.36420    0.00893     3.37280
      H    5    0.10798      0.00000     0.39144    0.00058     0.39202
      H    6    0.11520      0.00000     0.38380    0.00100     0.38480
      H    7    0.11238      0.00000     0.38681    0.00080     0.38762
      H    8    0.11570      0.00000     0.38299    0.00132     0.38430
      H    9    0.11180      0.00000     0.38753    0.00067     0.38820
      H   10    0.11468      0.00000     0.38446    0.00086     0.38532
      H   11    0.13031      0.00000     0.36921    0.00048     0.36969
      C   12   -0.31956      0.99969     2.31682    0.00304     3.31956
      C   13    0.05354      0.99958     1.93777    0.00911     2.94646
      N   14   -0.24241      0.99967     2.73265    0.01009     3.74241
      C   15   -0.03097      0.99946     2.02218    0.00933     3.03097
      C   16    0.10847      0.99967     1.88106    0.01080     2.89153
      N   17   -0.19098      0.99969     2.66345    0.02784     3.69098
      H   18    0.11087      0.00000     0.38842    0.00071     0.38913
      H   19    0.11027      0.00000     0.38904    0.00069     0.38973
      H   20    0.21239      0.00000     0.28680    0.00080     0.28761
      H   21    0.12366      0.00000     0.37563    0.00071     0.37634
      H   22    0.11813      0.00000     0.38096    0.00091     0.38187
      C   23   -0.13276      0.99942     2.12436    0.00898     3.13276
      C   24   -0.06371      0.99948     2.05629    0.00793     3.06371
      C   25   -0.12687      0.99949     2.11913    0.00825     3.12687
      C   26   -0.06965      0.99947     2.06194    0.00824     3.06965
      C   27    0.09867      0.99946     1.89108    0.01080     2.90133
      C   28   -0.01497      0.99940     2.00661    0.00896     3.01497
      C   29    0.01112      0.99945     1.98089    0.00853     2.98888
      C   30    0.06583      0.99952     1.92399    0.01066     2.93417
      C   31   -0.32373      0.99969     2.31664    0.00739     3.32373
      C   32   -0.22964      0.99959     2.22152    0.00853     3.22964
      C   33   -0.25629      0.99963     2.24748    0.00919     3.25629
      C   34    0.39071      0.99974     1.59198    0.01757     2.60929
      O   35   -0.34123      0.99979     3.32656    0.01488     4.34123
      O   36   -0.28383      0.99989     3.27240    0.01154     4.28383
      C   37    0.04134      0.99952     1.94875    0.01038     2.95866
      C   38    0.14045      0.99947     1.85176    0.00832     2.85955
      C   39   -0.11125      0.99943     2.10258    0.00924     3.11125
      C   40    0.10629      0.99950     1.88365    0.01057     2.89371
      C   41   -0.32362      0.99970     2.32041    0.00352     3.32362
      C   42    0.26039      0.99971     1.73493    0.00497     2.73961
      C   43    0.33378      0.99976     1.66259    0.00387     2.66622
      C   44    0.10797      0.99952     1.88182    0.01070     2.89203
      C   45   -0.04710      0.99947     2.03886    0.00877     3.04710
      C   46    0.02960      0.99940     1.96139    0.00962     2.97040
      C   47    0.07158      0.99951     1.91827    0.01064     2.92842
      C   48   -0.31757      0.99970     2.31329    0.00458     3.31757
      C   49   -0.43534      0.99972     2.42767    0.00794     3.43534
      C   50    0.29292      0.99975     1.70278    0.00455     2.70708
      C   51    0.06671      0.99952     1.92347    0.01031     2.93329
      C   52    0.01067      0.99945     1.98170    0.00819     2.98933
      C   53   -0.03728      0.99942     2.02784    0.01002     3.03728
      C   54    0.08766      0.99945     1.90188    0.01101     2.91234
      C   55   -0.32019      0.99970     2.31390    0.00660     3.32019
      C   56   -0.22270      0.99962     2.21518    0.00790     3.22270
      C   57   -0.26325      0.99964     2.25440    0.00922     3.26325
      C   58    0.38880      0.99973     1.59366    0.01781     2.61120
      O   59   -0.29383      0.99989     3.28192    0.01203     4.29383
      O   60   -0.32979      0.99979     3.31493    0.01507     4.32979
      N   61   -0.22320      0.99965     2.70204    0.02150     3.72320
      N   62   -0.16039      0.99964     2.63445    0.02630     3.66039
      N   63   -0.22865      0.99966     2.70670    0.02229     3.72865
      N   64   -0.19150      0.99965     2.66682    0.02502     3.69150
     Fe   65    0.67978      8.99577     3.29657    0.02788    12.32022
      H   66    0.10980      0.00000     0.38900    0.00121     0.39020
      H   67    0.11110      0.00000     0.38748    0.00141     0.38890
      H   68    0.11007      0.00000     0.38847    0.00146     0.38993
      H   69    0.11250      0.00000     0.38624    0.00126     0.38750
      H   70    0.11261      0.00000     0.38651    0.00088     0.38739
      H   71    0.11080      0.00000     0.38864    0.00056     0.38920
      H   72    0.11383      0.00000     0.38543    0.00074     0.38617
      H   73    0.11643      0.00000     0.38247    0.00110     0.38357
      H   74    0.12543      0.00000     0.37385    0.00072     0.37457
      H   75    0.11998      0.00000     0.37929    0.00073     0.38002
      H   76    0.10419      0.00000     0.39505    0.00076     0.39581
      H   77    0.11534      0.00000     0.38392    0.00073     0.38466
      H   78    0.11291      0.00000     0.38641    0.00068     0.38709
      H   79    0.11768      0.00000     0.38162    0.00070     0.38232
      H   80    0.10769      0.00000     0.39134    0.00097     0.39231
      H   81    0.10971      0.00000     0.38954    0.00075     0.39029
      H   82    0.10984      0.00000     0.38925    0.00091     0.39016
      H   83    0.11211      0.00000     0.38712    0.00078     0.38789
      H   84    0.10851      0.00000     0.39070    0.00078     0.39149
      H   85    0.11021      0.00000     0.38914    0.00065     0.38979
      H   86    0.11009      0.00000     0.38922    0.00069     0.38991
      H   87    0.11148      0.00000     0.38746    0.00106     0.38852
      H   88    0.12303      0.00000     0.37628    0.00069     0.37697
      H   89    0.11006      0.00000     0.38917    0.00077     0.38994
      H   90    0.25590      0.00000     0.24302    0.00108     0.24410
      H   91    0.26040      0.00000     0.23843    0.00117     0.23960
      H   92    0.08339      0.00000     0.41590    0.00071     0.41661
      H   93    0.06088      0.00000     0.43802    0.00109     0.43912
      H   94    0.10570      0.00000     0.39365    0.00065     0.39430
      H   95    0.11910      0.00000     0.38045    0.00046     0.38090
      H   96    0.06588      0.00000     0.43298    0.00114     0.43412
      H   97    0.11768      0.00000     0.38144    0.00088     0.38232
      H   98    0.08655      0.00000     0.41282    0.00063     0.41345
      H   99    0.10119      0.00000     0.39808    0.00073     0.39881
 =======================================================================
   * Total *    2.00000     64.97474   136.38951    0.63575   202.00000

 Normal termination of Gaussian 16 at Tue Jan 17 06:07:55 2023.
