 Gaussian 16, Revision A.03,
 Gaussian 16:  AM64L-G16RevA.03 25-Dec-2016

 ----------------------------------------------------------------------
 # PBE1PBE/def2TZVP empiricaldispersion=GD3BJ int=(grid=ultrafine) geom
 =check pop=nbo
 ----------------------------------------------------------------------

 ----------
 1qpu_III_H
 ----------
 Structure from the checkpoint file:  "1qpu_III_H.chk"
 Charge =  1 Multiplicity = 6

                         Standard orientation:
 ---------------------------------------------------------------------
 Center     Atomic      Atomic             Coordinates (Angstroms)
 Number     Number       Type             X           Y           Z
 ---------------------------------------------------------------------
      1          6           0        1.825752    1.252355   -3.086128
      2          6           0        1.072856   -0.076888   -2.980033
      3         16           0       -0.585717    0.082651   -2.258544
      4          6           0       -1.628464   -1.060936   -3.185511
      5          1           0        2.798313    1.079553   -3.497423
      6          1           0        1.922062    1.686380   -2.112862
      7          1           0        0.945707   -0.443544   -3.996958
      8          1           0        1.667100   -0.806443   -2.433499
      9          1           0       -1.540405   -0.814697   -4.243691
     10          1           0       -1.322463   -2.090490   -3.012380
     11          1           0       -2.664881   -0.917830   -2.881459
     12          6           0       -1.977414   -1.100435    5.408808
     13          6           0       -1.484939   -0.518347    4.102313
     14          7           0       -0.620788    0.546696    4.063641
     15          6           0       -1.814848   -0.836854    2.805355
     16          6           0       -0.447308    0.880897    2.782705
     17          7           0       -1.120563    0.052896    1.966974
     18          1           0       -2.597910   -0.384887    5.906679
     19          1           0       -1.140219   -1.340335    6.030461
     20          1           0       -0.341983    1.091086    4.866984
     21          1           0       -2.490618   -1.616519    2.488413
     22          1           0        0.158643    1.717861    2.478881
     23          6           0        2.282875   -0.649626    0.218819
     24          6           0       -0.180020    3.497667   -0.067466
     25          6           0       -4.304226    0.845468   -0.325393
     26          6           0       -1.742306   -3.326906   -0.152844
     27          6           0        1.939749    0.658979    0.232795
     28          6           0        2.921456    1.683261    0.383036
     29          6           0        2.254750    2.865283    0.265184
     30          6           0        0.846805    2.574813    0.081558
     31          6           0        2.975545    4.151039    0.295799
     32          6           0        4.404935    1.419180    0.535877
     33          6           0        5.497493    2.318467   -0.083888
     34          6           0        6.880410    2.020923    0.467145
     35          8           0        7.834465    2.127103   -0.331112
     36          8           0        6.959555    1.746295    1.684795
     37          6           0       -1.523782    3.106942   -0.161928
     38          6           0       -2.621504    4.018632   -0.378982
     39          6           0       -3.773804    3.263782   -0.449087
     40          6           0       -3.391737    1.889955   -0.282770
     41          6           0       -2.441251    5.486181   -0.635844
     42          6           0       -5.201396    3.684581   -0.685696
     43          6           0       -5.528694    5.166449   -0.680472
     44          6           0       -3.949460   -0.501653   -0.280428
     45          6           0       -4.895900   -1.583832   -0.299036
     46          6           0       -4.190791   -2.767708   -0.272216
     47          6           0       -2.792824   -2.409419   -0.200375
     48          6           0       -6.370809   -1.371547   -0.155660
     49          6           0       -4.742565   -4.179894   -0.288919
     50          6           0       -6.129119   -4.356305   -0.903264
     51          6           0       -0.418234   -2.914098   -0.105400
     52          6           0        0.734324   -3.786411   -0.095803
     53          6           0        1.840490   -3.010932    0.033151
     54          6           0        1.399861   -1.662631    0.058408
     55          6           0        0.837412   -5.259024   -0.177488
     56          6           0        3.250818   -3.445904    0.325546
     57          6           0        4.110100   -3.488562   -0.922239
     58          6           0        5.417540   -2.759492   -0.721118
     59          8           0        5.628473   -1.801759   -1.493029
     60          8           0        6.130999   -3.135153    0.231962
     61          7           0        0.727846    1.220159    0.077713
     62          7           0       -2.051753    1.844920   -0.110924
     63          7           0       -2.718290   -1.033871   -0.192189
     64          7           0        0.063509   -1.632881   -0.047847
     65         26           0       -1.018939    0.150369   -0.005700
     66          1           0        0.075072    4.543025   -0.111256
     67          1           0       -5.340214    1.118064   -0.432865
     68          1           0       -1.951486   -4.385104   -0.152369
     69          1           0        3.323438   -0.899125    0.279691
     70          1           0        3.480991    4.198865   -0.668603
     71          1           0        2.342439    5.007450    0.508034
     72          1           0        3.712627    3.982789    1.080008
     73          1           0        4.471443    0.694863   -0.223704
     74          1           0        4.652499    0.830191    1.439153
     75          1           0        5.344420    3.378278    0.027153
     76          1           0        5.514732    2.115821   -1.160325
     77          1           0       -1.598312    5.554278   -1.312171
     78          1           0       -3.292357    5.956507   -1.118765
     79          1           0       -2.200802    6.006918    0.286644
     80          1           0       -6.769641   -0.912327   -1.056347
     81          1           0       -6.913134   -2.281234    0.071009
     82          1           0       -6.456310   -0.683448    0.682002
     83          1           0        0.823853   -5.533137   -1.228122
     84          1           0        1.818200   -5.449986    0.269763
     85          1           0        0.049440   -5.749940    0.375896
     86          1           0        3.423164   -4.264495    0.988734
     87          1           0        3.637755   -2.749194    1.018136
     88          1           0        3.582229   -2.929352   -1.681898
     89          1           0        4.276615   -4.517951   -1.241859
     90          1           0        6.359481   -4.063019    0.323935
     91          1           0        8.001145    1.434598   -0.974738
     92          1           0       -5.210578    5.787468   -1.491667
     93          1           0       -6.982858   -3.915208   -0.432665
     94          1           0        1.282956    1.919922   -3.722231
     95          1           0       -2.542460   -1.987817    5.213421
     96          1           0       -6.247104   -4.921034   -1.804408
     97          1           0       -4.191055   -5.006609    0.107667
     98          1           0       -6.077576    5.590242    0.134407
     99          1           0       -5.966410    2.955537   -0.853465
 ---------------------------------------------------------------------

 SCF Done:  E(UPBE1PBE) =  -3878.98875378     A.U. after   59 cycles

 Alpha virt. eigenvalues --    0.93501   0.93684   0.93968   0.94248   0.94314
 Alpha virt. eigenvalues --    0.94738   0.94975   0.95282   0.95456   0.95530
 Alpha virt. eigenvalues --    0.95990   0.96174   0.96644   0.96891   0.97005

  Beta  occ. eigenvalues -- -256.45105 -89.11495 -30.19893 -26.03488 -26.03199
  Beta  occ. eigenvalues --  -26.01699 -19.34492 -19.31502 -19.26354 -19.24359
  Beta  occ. eigenvalues --  -14.54408 -14.50241 -14.48105 -14.47971 -14.46949
  Beta  occ. eigenvalues --  -14.46006 -10.43332 -10.41571 -10.38247 -10.37845
  Beta  occ. eigenvalues --  -10.35928 -10.35876 -10.35571 -10.35276 -10.35132
  Beta  occ. eigenvalues --  -10.34894 -10.34753 -10.34634 -10.33871 -10.33837
  Beta  occ. eigenvalues --  -10.33549 -10.33519 -10.33495 -10.33463 -10.33398
  Beta  occ. eigenvalues --  -10.32779 -10.32737 -10.32566 -10.32158 -10.32022
  Beta  occ. eigenvalues --  -10.31791 -10.31215 -10.31009 -10.30985 -10.30972
  Beta  occ. eigenvalues --  -10.30817 -10.30681 -10.30672 -10.30595 -10.30447
  Beta  occ. eigenvalues --  -10.30345 -10.30250 -10.29952 -10.29700 -10.29600
  Beta  occ. eigenvalues --  -10.29174 -10.28433  -8.09358  -6.03018  -6.02737
  Beta  occ. eigenvalues --   -6.02201  -3.51782  -2.28665  -2.27771  -2.23917
  Beta  occ. eigenvalues --   -1.25098  -1.22514  -1.15367  -1.11427  -1.09118
  Beta  occ. eigenvalues --   -1.09018  -1.08239  -1.08003  -1.07104  -1.00642
  Beta  occ. eigenvalues --   -0.94270  -0.93101  -0.92403  -0.92266  -0.92040
  Beta  occ. eigenvalues --   -0.91534  -0.91023  -0.90565  -0.89867  -0.88344
  Beta  occ. eigenvalues --   -0.87032  -0.86019  -0.85761  -0.85249  -0.83973
  Beta  occ. eigenvalues --   -0.82269  -0.81307  -0.81224  -0.80930  -0.79678
  Beta  occ. eigenvalues --   -0.78733  -0.77825  -0.76862  -0.76112  -0.75835
  Beta  occ. eigenvalues --   -0.75650  -0.75144  -0.74372  -0.72522  -0.71724
  Beta  occ. eigenvalues --   -0.71671  -0.69604  -0.69215  -0.69074  -0.68865
  Beta  occ. eigenvalues --   -0.65715  -0.65595  -0.64925  -0.64359  -0.63562
  Beta  occ. eigenvalues --   -0.62736  -0.62082  -0.61883  -0.61198  -0.59757
  Beta  occ. eigenvalues --   -0.59342  -0.58954  -0.58418  -0.57917  -0.57586
  Beta  occ. eigenvalues --   -0.57258  -0.56793  -0.56770  -0.56244  -0.55862
  Beta  occ. eigenvalues --   -0.55590  -0.55135  -0.54870  -0.54666  -0.54395
  Beta  occ. eigenvalues --   -0.54217  -0.54071  -0.53728  -0.53419  -0.53245
  Beta  occ. eigenvalues --   -0.53115  -0.52828  -0.52621  -0.52579  -0.52196
  Beta  occ. eigenvalues --   -0.52157  -0.51929  -0.51901  -0.51659  -0.51243
  Beta  occ. eigenvalues --   -0.51132  -0.50804  -0.50496  -0.50308  -0.50050
  Beta  occ. eigenvalues --   -0.49906  -0.49723  -0.49675  -0.49318  -0.49220
  Beta  occ. eigenvalues --   -0.48736  -0.48131  -0.48120  -0.47482  -0.47367
  Beta  occ. eigenvalues --   -0.47000  -0.46893  -0.46597  -0.46235  -0.46002
  Beta  occ. eigenvalues --   -0.45747  -0.45551  -0.45250  -0.44567  -0.44245
  Beta  occ. eigenvalues --   -0.43967  -0.43451  -0.43115  -0.42639  -0.42097
  Beta  occ. eigenvalues --   -0.41938  -0.41400  -0.41212  -0.40709  -0.40177
  Beta  occ. eigenvalues --   -0.39412  -0.39325  -0.38834  -0.38564  -0.36703
  Beta  occ. eigenvalues --   -0.36273  -0.35569  -0.34497  -0.34069  -0.33790
  Beta  occ. eigenvalues --   -0.32662  -0.31858  -0.30368  -0.29515  -0.28570
  Beta  occ. eigenvalues --   -0.27145
  Beta virt. eigenvalues --   -0.21669  -0.18126  -0.16758  -0.15278  -0.14367
  Beta virt. eigenvalues --   -0.12128  -0.11915  -0.09500  -0.08618  -0.08196
  Beta virt. eigenvalues --   -0.07678  -0.07095  -0.05929  -0.05643  -0.05179

 Mulliken charges and spin densities:
               1          2
     1  C   -0.330207   0.000460
     2  C   -0.173009  -0.001551
     3  S    0.026919  -0.037574
     4  C   -0.390354   0.003120
     5  H    0.136390  -0.000259
     6  H    0.117748  -0.000172
     7  H    0.143992  -0.001448
     8  H    0.134045  -0.000682
     9  H    0.171022  -0.001771
    10  H    0.148150  -0.000778
    11  H    0.161840  -0.000042
    12  C   -0.382056  -0.000372
    13  C    0.153524   0.002351
    14  N   -0.203962  -0.001712
    15  C   -0.203942  -0.003444
    16  C    0.022615  -0.002176
    17  N    0.098545  -0.030715
    18  H    0.150861   0.000070
    19  H    0.149753   0.000065
    20  H    0.256919   0.000258
    21  H    0.149156   0.000486
    22  H    0.181394   0.000520
    23  C   -0.419873   0.037609
    24  C   -0.550055   0.072279
    25  C   -0.533113   0.064746
    26  C   -0.545661  -0.026981
    27  C    0.176485  -0.059197
    28  C    0.036600   0.009213
    29  C    0.022928  -0.014523
    30  C    0.229315  -0.060928
    31  C   -0.463663   0.002027
    32  C   -0.270118   0.001154
    33  C   -0.292667  -0.000058
    34  C    0.317667   0.000016
    35  O   -0.342182  -0.000013
    36  O   -0.334932   0.000032
    37  C    0.259457  -0.107728
    38  C   -0.089387   0.338517
    39  C   -0.050975  -0.201065
    40  C    0.279971  -0.029236
    41  C   -0.336856  -0.019234
    42  C   -0.074541   0.677289
    43  C   -0.318516   1.033017
    44  C    0.199662  -0.065469
    45  C   -0.019963   0.255781
    46  C    0.003810  -0.010771
    47  C    0.234939  -0.038199
    48  C   -0.355040  -0.011499
    49  C   -0.119921   0.089920
    50  C   -0.257257   0.961272
    51  C    0.257945  -0.011358
    52  C   -0.019899  -0.029935
    53  C   -0.074905   0.019320
    54  C    0.155992  -0.056779
    55  C   -0.399096   0.001523
    56  C   -0.359741  -0.000911
    57  C   -0.237928  -0.000094
    58  C    0.318245   0.000095
    59  O   -0.369990   0.000079
    60  O   -0.309701   0.000005
    61  N   -0.085626   0.078725
    62  N    0.096979   0.071576
    63  N   -0.049699   0.052193
    64  N   -0.001332  -0.023802
    65  Fe  -0.201898   2.145205
    66  H    0.145544  -0.003381
    67  H    0.123944  -0.001749
    68  H    0.116209   0.001770
    69  H    0.151212  -0.002089
    70  H    0.165876  -0.001305
    71  H    0.132572   0.000011
    72  H    0.168737  -0.001109
    73  H    0.130105  -0.000041
    74  H    0.178080  -0.000180
    75  H    0.147145  -0.000008
    76  H    0.124204   0.000027
    77  H    0.139407   0.012385
    78  H    0.113257  -0.001451
    79  H    0.150226   0.016921
    80  H    0.156226   0.011745
    81  H    0.114239  -0.001847
    82  H    0.149870   0.009373
    83  H    0.151748  -0.001798
    84  H    0.132737  -0.000788
    85  H    0.128477  -0.000603
    86  H    0.151474   0.000424
    87  H    0.163791   0.000079
    88  H    0.132641   0.000036
    89  H    0.137304  -0.000139
    90  H    0.360672   0.000003
    91  H    0.364547  -0.000001
    92  H    0.162148  -0.018396
    93  H    0.158059  -0.032693
    94  H    0.126349  -0.000241
    95  H    0.145956  -0.000008
    96  H    0.171860  -0.032669
    97  H    0.173243   0.009659
    98  H    0.160911  -0.021142
    99  H    0.146422  -0.009242
 Sum of Mulliken charges =   1.00000   5.00000

 Dipole moment (field-independent basis, Debye):
    X=             -7.5831    Y=             -5.0396    Z=              1.2049  Tot=              9.1844
 Quadrupole moment (field-independent basis, Debye-Ang):
   XX=           -245.3723   YY=           -234.1887   ZZ=           -278.9868
   XY=            -17.0225   XZ=            -17.5820   YZ=             -1.7884

 Summary of Natural Population Analysis:

                                       Natural Population
                Natural  -----------------------------------------------
    Atom  No    Charge         Core      Valence    Rydberg      Total
 -----------------------------------------------------------------------
      C    1   -0.30516      0.99971     2.29974    0.00571     3.30516
      C    2   -0.26243      0.99966     2.25338    0.00939     3.26243
      S    3    0.25714      4.99916     2.72054    0.02316     7.74286
      C    4   -0.37393      0.99967     2.36517    0.00910     3.37393
      H    5    0.11171      0.00000     0.38772    0.00057     0.38829
      H    6    0.10821      0.00000     0.39076    0.00103     0.39179
      H    7    0.11569      0.00000     0.38355    0.00077     0.38431
      H    8    0.11102      0.00000     0.38769    0.00129     0.38898
      H    9    0.11595      0.00000     0.38341    0.00065     0.38405
      H   10    0.11131      0.00000     0.38786    0.00084     0.38869
      H   11    0.12335      0.00000     0.37614    0.00051     0.37665
      C   12   -0.32066      0.99969     2.31792    0.00305     3.32066
      C   13    0.06200      0.99958     1.92950    0.00892     2.93800
      N   14   -0.24123      0.99967     2.73148    0.01007     3.74123
      C   15   -0.04236      0.99946     2.03357    0.00933     3.04236
      C   16    0.09982      0.99967     1.88962    0.01089     2.90018
      N   17   -0.19189      0.99970     2.66307    0.02912     3.69189
      H   18    0.11401      0.00000     0.38532    0.00066     0.38599
      H   19    0.11399      0.00000     0.38536    0.00065     0.38601
      H   20    0.21541      0.00000     0.28381    0.00078     0.28459
      H   21    0.11753      0.00000     0.38175    0.00072     0.38247
      H   22    0.11506      0.00000     0.38405    0.00089     0.38494
      C   23   -0.10289      0.99942     2.09461    0.00886     3.10289
      C   24   -0.09237      0.99948     2.08512    0.00777     3.09237
      C   25   -0.08748      0.99949     2.08014    0.00785     3.08748
      C   26   -0.12956      0.99948     2.12217    0.00791     3.12956
      C   27    0.05252      0.99947     1.93723    0.01079     2.94748
      C   28   -0.00231      0.99940     1.99387    0.00903     3.00231
      C   29   -0.02550      0.99945     2.01761    0.00844     3.02550
      C   30    0.06101      0.99953     1.92913    0.01033     2.93899
      C   31   -0.32381      0.99969     2.31659    0.00753     3.32381
      C   32   -0.23189      0.99959     2.22383    0.00847     3.23189
      C   33   -0.25621      0.99962     2.24751    0.00908     3.25621
      C   34    0.39033      0.99974     1.59251    0.01742     2.60967
      O   35   -0.33776      0.99979     3.32300    0.01498     4.33776
      O   36   -0.28032      0.99989     3.26888    0.01155     4.28032
      C   37    0.04315      0.99952     1.94691    0.01042     2.95685
      C   38    0.15131      0.99947     1.84120    0.00802     2.84869
      C   39   -0.11253      0.99943     2.10406    0.00905     3.11253
      C   40    0.07733      0.99950     1.91250    0.01067     2.92267
      C   41   -0.32558      0.99970     2.31985    0.00603     3.32558
      C   42    0.24631      0.99971     1.74930    0.00468     2.75369
      C   43    0.33619      0.99976     1.66016    0.00390     2.66381
      C   44    0.04223      0.99952     1.94758    0.01067     2.95777
      C   45    0.12841      0.99947     1.86367    0.00845     2.87159
      C   46   -0.03626      0.99940     2.02727    0.00959     3.03626
      C   47    0.06381      0.99951     1.92624    0.01044     2.93619
      C   48   -0.32792      0.99970     2.32161    0.00661     3.32792
      C   49   -0.01427      0.99972     2.00893    0.00562     3.01427
      C   50    0.31368      0.99974     1.68248    0.00410     2.68632
      C   51    0.07488      0.99952     1.91538    0.01022     2.92512
      C   52   -0.01747      0.99945     2.00992    0.00809     3.01747
      C   53   -0.01137      0.99942     2.00204    0.00991     3.01137
      C   54    0.05700      0.99945     1.93277    0.01078     2.94300
      C   55   -0.32053      0.99970     2.31420    0.00663     3.32053
      C   56   -0.22611      0.99962     2.21893    0.00756     3.22611
      C   57   -0.26217      0.99964     2.25347    0.00906     3.26217
      C   58    0.38856      0.99973     1.59410    0.01760     2.61144
      O   59   -0.29132      0.99989     3.27942    0.01201     4.29132
      O   60   -0.32788      0.99979     3.31302    0.01507     4.32788
      N   61   -0.17888      0.99968     2.65876    0.02043     3.67888
      N   62   -0.15089      0.99966     2.62759    0.02364     3.65089
      N   63   -0.15582      0.99970     2.63511    0.02101     3.65582
      N   64   -0.20373      0.99968     2.68154    0.02251     3.70373
     Fe   65    1.12115      8.99553     2.85457    0.02875    11.87885
      H   66    0.11830      0.00000     0.38055    0.00115     0.38170
      H   67    0.11384      0.00000     0.38489    0.00128     0.38616
      H   68    0.11657      0.00000     0.38217    0.00126     0.38343
      H   69    0.11802      0.00000     0.38073    0.00125     0.38198
      H   70    0.11549      0.00000     0.38366    0.00085     0.38451
      H   71    0.11275      0.00000     0.38672    0.00053     0.38725
      H   72    0.11793      0.00000     0.38138    0.00070     0.38207
      H   73    0.11754      0.00000     0.38140    0.00106     0.38246
      H   74    0.12982      0.00000     0.36947    0.00071     0.37018
      H   75    0.12069      0.00000     0.37862    0.00069     0.37931
      H   76    0.10585      0.00000     0.39341    0.00074     0.39415
      H   77    0.11814      0.00000     0.38131    0.00055     0.38186
      H   78    0.11751      0.00000     0.38192    0.00057     0.38249
      H   79    0.12370      0.00000     0.37574    0.00056     0.37630
      H   80    0.12444      0.00000     0.37498    0.00058     0.37556
      H   81    0.11243      0.00000     0.38697    0.00060     0.38757
      H   82    0.12164      0.00000     0.37777    0.00059     0.37836
      H   83    0.11479      0.00000     0.38448    0.00074     0.38521
      H   84    0.11357      0.00000     0.38569    0.00073     0.38643
      H   85    0.11071      0.00000     0.38867    0.00062     0.38929
      H   86    0.11539      0.00000     0.38396    0.00066     0.38461
      H   87    0.11301      0.00000     0.38602    0.00097     0.38699
      H   88    0.12104      0.00000     0.37829    0.00067     0.37896
      H   89    0.11398      0.00000     0.38530    0.00072     0.38602
      H   90    0.25809      0.00000     0.24088    0.00104     0.24191
      H   91    0.26169      0.00000     0.23719    0.00113     0.23831
      H   92    0.08850      0.00000     0.41080    0.00070     0.41150
      H   93    0.08255      0.00000     0.41662    0.00084     0.41745
      H   94    0.10844      0.00000     0.39093    0.00063     0.39156
      H   95    0.11875      0.00000     0.38080    0.00045     0.38125
      H   96    0.09131      0.00000     0.40796    0.00073     0.40869
      H   97    0.11683      0.00000     0.38242    0.00076     0.38317
      H   98    0.09296      0.00000     0.40643    0.00061     0.40704
      H   99    0.10422      0.00000     0.39508    0.00070     0.39578
 =======================================================================
   * Total *    3.00000     64.97464   135.39934    0.62602   201.00000

 Normal termination of Gaussian 16 at Sun Jan 22 07:27:56 2023.
