 Gaussian 16, Revision A.03,
 Gaussian 16:  ES64L-G16RevA.03 25-Dec-2016

 ---------------------------------------------------------------------
 # polar def2tzvp empiricaldispersion=gd3bj int=grid=ultrafine pbe1pbe
 ---------------------------------------------------------------------

 ---------
 1vb6_II_S
 ---------
 Symbolic Z-matrix:
 Charge =  0 Multiplicity = 1

                         Standard orientation:
 ---------------------------------------------------------------------
 Center     Atomic      Atomic             Coordinates (Angstroms)
 Number     Number       Type             X           Y           Z
 ---------------------------------------------------------------------
      1          6           0       -1.455645   -1.216367    5.645066
      2          6           0       -1.437922   -0.507888    4.325486
      3          7           0       -1.724946    0.833824    4.194790
      4          6           0       -1.140542   -0.952647    3.082565
      5          6           0       -1.602520    1.187248    2.928847
      6          7           0       -1.248726    0.122251    2.231468
      7          6           0        1.457369   -0.728434   -4.075599
      8          6           0        1.065548   -0.818595   -2.615159
      9         16           0       -0.356622    0.230336   -2.212341
     10          6           0       -1.624416   -0.593734   -3.174630
     11          6           0        2.524573   -0.267427    0.801395
     12          6           0       -1.235425   -3.278693    0.106440
     13          6           0       -4.167596    0.511484   -0.597025
     14          6           0       -0.440137    3.547876    0.084674
     15          6           0        1.723095   -1.440851    0.685002
     16          6           0        2.260081   -2.790917    0.826210
     17          6           0        1.195074   -3.645858    0.621036
     18          6           0        0.037595   -2.813010    0.362684
     19          6           0        1.243141   -5.188840    0.662571
     20          6           0        3.695233   -3.140826    1.261979
     21          6           0        4.458942   -3.907309    0.192288
     22          6           0        4.646643   -3.122504   -1.086039
     23          8           0        4.221239   -3.628544   -2.126235
     24          8           0        5.205453   -2.003897   -1.036639
     25          6           0       -2.354157   -2.511307   -0.148123
     26          6           0       -3.652821   -3.061896   -0.417421
     27          6           0       -4.542963   -2.015933   -0.619723
     28          6           0       -3.700355   -0.793915   -0.467066
     29          6           0       -3.943238   -4.588176   -0.464904
     30          6           0       -5.945936   -2.155310   -0.911031
     31          6           0       -6.674414   -3.034085   -1.770115
     32          6           0       -3.393321    1.663766   -0.468714
     33          6           0       -3.963675    3.003475   -0.641865
     34          6           0       -2.897215    3.890208   -0.445699
     35          6           0       -1.723900    3.053648   -0.165588
     36          6           0       -5.449107    3.292945   -0.976901
     37          6           0       -2.862187    5.325805   -0.497364
     38          6           0       -3.563148    6.228976   -1.330607
     39          6           0        0.702569    2.784993    0.335242
     40          6           0        2.034863    3.331427    0.568878
     41          6           0        2.862540    2.260355    0.760516
     42          6           0        2.027415    1.058652    0.660890
     43          6           0        2.448569    4.815647    0.576403
     44          6           0        4.372547    2.292659    1.029013
     45          6           0        5.029521    1.947800   -0.314074
     46          6           0        6.490995    2.360453   -0.457022
     47          8           0        7.022937    2.220889   -1.589857
     48          8           0        7.093146    2.815695    0.546526
     49          7           0        0.370227   -1.471399    0.410538
     50          7           0       -2.370852   -1.096552   -0.168459
     51          7           0       -2.041053    1.679360   -0.175407
     52          7           0        0.712286    1.390735    0.393382
     53         26           0       -0.782814    0.122142    0.163453
     54          1           0        6.474175    2.064160   -2.361800
     55          1           0        4.966016    0.889017   -0.454950
     56          1           0        4.470177    2.424508   -1.091752
     57          1           0        4.633603    1.563780    1.767583
     58          1           0        4.671668    3.269113    1.348331
     59          1           0        1.573790    5.429988    0.528998
     60          1           0        2.987461    5.031148    1.475322
     61          1           0        3.071750    5.016503   -0.269885
     62          1           0        3.567100   -0.391843    1.007692
     63          1           0       -0.321977    4.611332    0.084176
     64          1           0       -5.912146    2.401137   -1.344558
     65          1           0       -5.956697    3.620305   -0.093675
     66          1           0       -5.503894    4.057220   -1.723749
     67          1           0       -5.207468    0.640930   -0.813380
     68          1           0       -4.477318   -4.821874   -1.362146
     69          1           0       -3.019355   -5.127701   -0.448976
     70          1           0       -4.532955   -4.865603    0.383723
     71          1           0       -1.368852   -4.340340    0.104869
     72          1           0        0.762726   -5.584207   -0.207939
     73          1           0        2.262454   -5.513429    0.685859
     74          1           0        0.737545   -5.537979    1.538571
     75          1           0        3.651279   -3.737057    2.149378
     76          1           0        4.220968   -2.234648    1.479564
     77          1           0        5.421950   -4.167973    0.579031
     78          1           0        3.924240   -4.806376   -0.032817
     79          1           0        3.285043   -3.583719   -2.333908
     80          1           0       -1.762546    2.169010    2.534596
     81          1           0       -1.985404    1.444514    4.942600
     82          1           0       -0.871774   -1.952557    2.812668
     83          1           0       -2.069933   -2.089488    5.572889
     84          1           0       -0.459114   -1.502273    5.909799
     85          1           0       -1.850550   -0.563446    6.395163
     86          1           0       -2.117507    0.120242   -3.800729
     87          1           0       -1.175027   -1.350971   -3.782529
     88          1           0       -2.337578   -1.042437   -2.515111
     89          1           0        0.634145   -0.347089   -4.642855
     90          1           0        2.296535   -0.072830   -4.179921
     91          1           0        1.718199   -1.701695   -4.435642
     92          1           0        0.821967   -1.834691   -2.384684
     93          1           0        1.898331   -0.517455   -2.014586
     94          1           0       -6.443934   -4.078838   -1.786537
     95          1           0       -7.450505   -2.647511   -2.397127
     96          1           0       -6.565552   -1.464063   -0.378910
     97          1           0       -3.346385    6.269239   -2.377647
     98          1           0       -4.310081    6.871824   -0.913788
     99          1           0       -2.200246    5.785001    0.206819
 ---------------------------------------------------------------------

 SCF Done:  E(RPBE1PBE) =  -3879.32934785     A.U. after   26 cycles

 The electronic state is 1-A.
 Alpha  occ. eigenvalues -- -256.31855 -89.02595 -30.08685 -25.91483 -25.91146
 Alpha  occ. eigenvalues --  -25.91132 -19.26285 -19.26049 -19.18809 -19.16663
 Alpha  occ. eigenvalues --  -14.45139 -14.39286 -14.37989 -14.37867 -14.37676
 Alpha  occ. eigenvalues --  -14.37554 -10.35766 -10.34365 -10.28152 -10.26441
 Alpha  occ. eigenvalues --  -10.25704 -10.25186 -10.25167 -10.25023 -10.24992
 Alpha  occ. eigenvalues --  -10.24963 -10.24808 -10.24693 -10.24221 -10.24147
 Alpha  occ. eigenvalues --  -10.23876 -10.23742 -10.23533 -10.23449 -10.23405
 Alpha  occ. eigenvalues --  -10.23313 -10.23149 -10.23142 -10.23085 -10.22954
 Alpha  occ. eigenvalues --  -10.22953 -10.22860 -10.22645 -10.22591 -10.22549
 Alpha  occ. eigenvalues --  -10.22365 -10.22345 -10.22000 -10.21981 -10.21964
 Alpha  occ. eigenvalues --  -10.21855 -10.21831 -10.21738 -10.21437 -10.21295
 Alpha  occ. eigenvalues --  -10.21294 -10.21159  -8.00370  -5.94031  -5.93719
 Alpha  occ. eigenvalues --   -5.93206  -3.43196  -2.19092  -2.18501  -2.18472
 Alpha  occ. eigenvalues --   -1.17955  -1.15949  -1.06958  -1.03341  -1.01469
 Alpha  occ. eigenvalues --   -0.97180  -0.96235  -0.95805  -0.94904  -0.91120
 Alpha  occ. eigenvalues --   -0.84509  -0.84087  -0.83124  -0.82776  -0.82251
 Alpha  occ. eigenvalues --   -0.81934  -0.81787  -0.80589  -0.80414  -0.79106
 Alpha  occ. eigenvalues --   -0.77997  -0.76972  -0.76627  -0.75866  -0.74908
 Alpha  occ. eigenvalues --   -0.73741  -0.73135  -0.72467  -0.71702  -0.71248
 Alpha  occ. eigenvalues --   -0.70717  -0.69371  -0.68867  -0.68156  -0.66607
 Alpha  occ. eigenvalues --   -0.66131  -0.65173  -0.65004  -0.64736  -0.62696
 Alpha  occ. eigenvalues --   -0.62274  -0.61665  -0.60495  -0.58770  -0.57394
 Alpha  occ. eigenvalues --   -0.56978  -0.56142  -0.54663  -0.54274  -0.53678
 Alpha  occ. eigenvalues --   -0.53304  -0.52707  -0.52054  -0.51945  -0.51028
 Alpha  occ. eigenvalues --   -0.50626  -0.49847  -0.49735  -0.49246  -0.48675
 Alpha  occ. eigenvalues --   -0.48456  -0.48341  -0.48152  -0.47854  -0.47708
 Alpha  occ. eigenvalues --   -0.46560  -0.46082  -0.45864  -0.45306  -0.44993
 Alpha  occ. eigenvalues --   -0.44936  -0.44742  -0.44608  -0.44352  -0.44184
 Alpha  occ. eigenvalues --   -0.44031  -0.43886  -0.43761  -0.43655  -0.43621
 Alpha  occ. eigenvalues --   -0.43460  -0.43201  -0.43122  -0.42916  -0.42796
 Alpha  occ. eigenvalues --   -0.42449  -0.42131  -0.41949  -0.41655  -0.41318
 Alpha  occ. eigenvalues --   -0.40956  -0.40521  -0.40024  -0.39756  -0.39506
 Alpha  occ. eigenvalues --   -0.39395  -0.39216  -0.39105  -0.38748  -0.38518
 Alpha  occ. eigenvalues --   -0.38356  -0.38083  -0.37839  -0.37520  -0.36998
 Alpha  occ. eigenvalues --   -0.36804  -0.36525  -0.36352  -0.36040  -0.35763
 Alpha  occ. eigenvalues --   -0.35433  -0.34779  -0.34227  -0.33763  -0.33280
 Alpha  occ. eigenvalues --   -0.33022  -0.32592  -0.32329  -0.32050  -0.31570
 Alpha  occ. eigenvalues --   -0.31015  -0.30594  -0.28582  -0.28472  -0.28088
 Alpha  occ. eigenvalues --   -0.27159  -0.26719  -0.26508  -0.25816  -0.25153
 Alpha  occ. eigenvalues --   -0.24446  -0.24086  -0.21921  -0.20844  -0.20337
 Alpha  occ. eigenvalues --   -0.19144  -0.19042  -0.18781  -0.17982
 Alpha virt. eigenvalues --   -0.08522  -0.07642  -0.05664  -0.04046  -0.02396
 Alpha virt. eigenvalues --   -0.00254   0.00452   0.01432   0.01646   0.02238
 Alpha virt. eigenvalues --    0.02448   0.02958   0.03774   0.04204   0.04277

 Mulliken charges:
               1
     1  C   -0.359363
     2  C    0.133927
     3  N   -0.216657
     4  C   -0.163555
     5  C    0.026743
     6  N   -0.024664
     7  C   -0.317660
     8  C   -0.252584
     9  S    0.019806
    10  C   -0.367783
    11  C   -0.576111
    12  C   -0.536959
    13  C   -0.478763
    14  C   -0.510309
    15  C    0.287114
    16  C   -0.110151
    17  C   -0.086413
    18  C    0.163058
    19  C   -0.393260
    20  C   -0.209882
    21  C   -0.208397
    22  C    0.310184
    23  O   -0.334695
    24  O   -0.360685
    25  C    0.392673
    26  C   -0.068058
    27  C    0.052439
    28  C    0.134127
    29  C   -0.389061
    30  C   -0.234148
    31  C   -0.305572
    32  C    0.345120
    33  C   -0.116096
    34  C    0.079373
    35  C    0.202759
    36  C   -0.379831
    37  C   -0.224988
    38  C   -0.372440
    39  C    0.361364
    40  C   -0.092154
    41  C   -0.055797
    42  C    0.253180
    43  C   -0.417680
    44  C   -0.202414
    45  C   -0.352413
    46  C    0.323208
    47  O   -0.293877
    48  O   -0.375307
    49  N    0.031404
    50  N   -0.029696
    51  N   -0.043680
    52  N    0.043844
    53  Fe  -0.331223
    54  H    0.343027
    55  H    0.182078
    56  H    0.135777
    57  H    0.122662
    58  H    0.125954
    59  H    0.125343
    60  H    0.143829
    61  H    0.136962
    62  H    0.119491
    63  H    0.092272
    64  H    0.126994
    65  H    0.136414
    66  H    0.150885
    67  H    0.092542
    68  H    0.125227
    69  H    0.118208
    70  H    0.147444
    71  H    0.096720
    72  H    0.135262
    73  H    0.123990
    74  H    0.142149
    75  H    0.126993
    76  H    0.123278
    77  H    0.126936
    78  H    0.093651
    79  H    0.356311
    80  H    0.173661
    81  H    0.229569
    82  H    0.146087
    83  H    0.147691
    84  H    0.148275
    85  H    0.116702
    86  H    0.149455
    87  H    0.144220
    88  H    0.164749
    89  H    0.140212
    90  H    0.124904
    91  H    0.103685
    92  H    0.112322
    93  H    0.165654
    94  H    0.133516
    95  H    0.143235
    96  H    0.125766
    97  H    0.144920
    98  H    0.143647
    99  H    0.123337
 Sum of Mulliken charges =  -0.00000

 Dipole moment (field-independent basis, Debye):
    X=             -5.5112    Y=             -4.5492    Z=              1.8675  Tot=              7.3862
 Quadrupole moment (field-independent basis, Debye-Ang):
   XX=           -379.2538   YY=           -308.9173   ZZ=           -284.9504
   XY=            -21.9737   XZ=            -20.0339   YZ=              1.2459

  Exact polarizability: 852.546 -11.581 866.391  84.783 -21.633 457.527
 Approx polarizability:1490.397 -19.1311644.995 214.249 -42.642 726.631

 Normal termination of Gaussian 16 at Sun Jan 15 23:31:06 2023.
