 Gaussian 16, Revision A.03,
 Gaussian 16:  ES64L-G16RevA.03 25-Dec-2016

 ---------------------------------------------------------------------
 # polar def2tzvp empiricaldispersion=gd3bj int=grid=ultrafine pbe1pbe
 ---------------------------------------------------------------------

 ---------
 1ycc_II_S
 ---------
 Symbolic Z-matrix:
 Charge =  0 Multiplicity = 1

                         Standard orientation:
 ---------------------------------------------------------------------
 Center     Atomic      Atomic             Coordinates (Angstroms)
 Number     Number       Type             X           Y           Z
 ---------------------------------------------------------------------
      1          6           0        2.468053   -1.856172    4.947966
      2          6           0        1.666425   -1.350076    3.778661
      3          7           0        0.317816   -1.358164    3.755049
      4          6           0        2.081531   -0.875037    2.550414
      5          6           0       -0.074217   -0.890456    2.663821
      6          7           0        0.969297   -0.598287    1.830413
      7          6           0       -0.714350    2.898424   -2.707884
      8          6           0        0.599624    2.080160   -2.778552
      9         16           0        0.437218    0.436133   -2.342520
     10          6           0        1.839321   -0.243717   -3.234893
     11         26           0        0.816983   -0.072263   -0.078276
     12          6           0       -2.580619   -0.055763   -0.075910
     13          6           0        0.757676   -3.436856   -0.536266
     14          6           0        4.125144    0.014980   -0.594566
     15          6           0        0.853608    3.073536    0.976226
     16          7           0       -0.619487   -1.408880   -0.253213
     17          6           0       -1.955818   -1.284882   -0.229828
     18          6           0       -2.645860   -2.509009   -0.702994
     19          6           0       -1.688306   -3.432487   -0.795038
     20          6           0       -0.441805   -2.844899   -0.572476
     21          6           0       -1.900671   -4.930640   -1.236441
     22          6           0       -4.143698   -2.599479   -0.767465
     23          6           0       -4.687493   -3.074947    0.618723
     24          6           0       -6.156339   -3.458294    0.715814
     25          8           0       -6.507938   -3.796065    1.851948
     26          8           0       -6.895881   -3.401976   -0.290146
     27          7           0        2.206568   -1.456222   -0.484016
     28          6           0        2.001049   -2.829273   -0.420940
     29          6           0        3.306174   -3.432146   -0.675712
     30          6           0        4.269967   -2.482026   -0.764130
     31          6           0        3.531936   -1.261085   -0.580928
     32          6           0        3.500322   -4.992310   -0.664877
     33          6           0        5.764094   -2.577358   -0.928013
     34          6           0        6.231394   -2.702312   -2.387389
     35          7           0        2.207380    1.328924    0.163900
     36          6           0        3.543131    1.256615   -0.090955
     37          6           0        4.334408    2.371910    0.252100
     38          6           0        3.401044    3.259365    0.654339
     39          6           0        2.099018    2.596381    0.686443
     40          6           0        5.811506    2.572728    0.104562
     41          6           0        3.543194    4.642936    1.361482
     42          6           0        4.449739    5.606273    0.562394
     43          7           0       -0.593690    1.274532    0.380739
     44          6           0       -0.386635    2.578135    0.816021
     45          6           0       -1.608700    3.207002    1.016576
     46          6           0       -2.581773    2.341366    0.689408
     47          6           0       -1.933053    1.124877    0.206958
     48          6           0       -1.821529    4.725724    1.460971
     49          6           0       -4.094221    2.672155    0.631007
     50          6           0       -4.591709    2.890939   -0.778631
     51          6           0       -5.926610    3.587227   -0.967910
     52          8           0       -6.737528    3.542358   -0.003672
     53          8           0       -6.142557    3.989235   -2.133287
     54          1           0        1.638988   -1.263201   -3.490666
     55          1           0        2.002328    0.322647   -4.127955
     56          1           0        2.712130   -0.195707   -2.617804
     57          1           0       -1.167102    2.763892   -1.747771
     58          1           0       -0.497249    3.935402   -2.857693
     59          1           0       -1.386035    2.561011   -3.469390
     60          1           0        0.974556    2.128807   -3.779532
     61          1           0        1.315696    2.533772   -2.125577
     62          1           0        4.598017    6.504839    1.124080
     63          1           0        5.395010    5.138740    0.381354
     64          1           0        3.983845    5.842214   -0.371509
     65          1           0        3.070185    4.894379    2.287731
     66          1           0        6.329698    1.750415    0.551976
     67          1           0        6.061759    2.629332   -0.934221
     68          1           0        6.098151    3.481879    0.590544
     69          1           0        5.105330    0.082893   -1.018267
     70          1           0        5.409389   -3.008503   -3.000131
     71          1           0        6.596432   -1.755683   -2.727302
     72          1           0        7.013583   -3.429713   -2.450395
     73          1           0        6.441859   -2.559651   -0.100232
     74          1           0        2.557399   -5.467879   -0.492743
     75          1           0        3.892759   -5.309454   -1.608441
     76          1           0        4.182938   -5.261382    0.113927
     77          1           0        0.758953   -4.504696   -0.604211
     78          1           0       -2.902786   -5.230290   -1.010887
     79          1           0       -1.730031   -5.019969   -2.288963
     80          1           0       -1.213359   -5.558679   -0.709119
     81          1           0       -4.427717   -3.301525   -1.523351
     82          1           0       -4.550689   -1.637841   -1.000942
     83          1           0       -4.110003   -3.923863    0.919968
     84          1           0       -4.509784   -2.289813    1.323622
     85          1           0       -7.356689   -4.224710    1.984181
     86          1           0       -3.644532   -0.023550   -0.185235
     87          1           0       -4.641098    1.862760    1.067705
     88          1           0       -4.275324    3.558850    1.201860
     89          1           0       -3.851657    3.463405   -1.297771
     90          1           0       -4.656432    1.933161   -1.251254
     91          1           0       -7.020015    3.908066   -2.514180
     92          1           0       -2.132571    4.757676    2.484265
     93          1           0       -0.902078    5.261788    1.350764
     94          1           0       -2.572564    5.175481    0.845696
     95          1           0        0.866502    4.044939    1.424678
     96          1           0       -1.102927   -0.737269    2.412446
     97          1           0       -0.273508   -1.685654    4.491993
     98          1           0        3.093956   -0.749136    2.227852
     99          1           0        1.989380   -2.719007    5.361836
    100          1           0        3.452225   -2.117500    4.619312
    101          1           0        2.532357   -1.091747    5.693901
 ---------------------------------------------------------------------

 SCF Done:  E(RPBE1PBE) =  -3880.47955852     A.U. after   29 cycles

 The electronic state is 1-A.
 Alpha  occ. eigenvalues -- -256.30846 -89.01195 -30.07845 -25.90658 -25.90368
 Alpha  occ. eigenvalues --  -25.90170 -19.27499 -19.27016 -19.17774 -19.17646
 Alpha  occ. eigenvalues --  -14.45287 -14.38930 -14.36873 -14.36716 -14.35825
 Alpha  occ. eigenvalues --  -14.35769 -10.35266 -10.35220 -10.27250 -10.25539
 Alpha  occ. eigenvalues --  -10.24319 -10.24080 -10.23730 -10.23701 -10.23665
 Alpha  occ. eigenvalues --  -10.23568 -10.23481 -10.23479 -10.23368 -10.23257
 Alpha  occ. eigenvalues --  -10.23182 -10.22902 -10.22858 -10.22774 -10.22628
 Alpha  occ. eigenvalues --  -10.22228 -10.22176 -10.21713 -10.21706 -10.21671
 Alpha  occ. eigenvalues --  -10.21504 -10.21449 -10.21428 -10.21393 -10.21306
 Alpha  occ. eigenvalues --  -10.21296 -10.21294 -10.21190 -10.21175 -10.21120
 Alpha  occ. eigenvalues --  -10.20852 -10.20841 -10.20690 -10.20638 -10.20264
 Alpha  occ. eigenvalues --  -10.19878 -10.19876  -7.99168  -5.92820  -5.92505
 Alpha  occ. eigenvalues --   -5.92002  -3.42262  -2.18246  -2.17710  -2.17347
 Alpha  occ. eigenvalues --   -1.18316  -1.17113  -1.08621  -1.02530  -1.02148
 Alpha  occ. eigenvalues --   -0.97726  -0.96567  -0.96331  -0.95053  -0.91698
 Alpha  occ. eigenvalues --   -0.84495  -0.83157  -0.83114  -0.82629  -0.81924
 Alpha  occ. eigenvalues --   -0.81360  -0.80663  -0.80223  -0.79928  -0.78571
 Alpha  occ. eigenvalues --   -0.77816  -0.76424  -0.75546  -0.75494  -0.74360
 Alpha  occ. eigenvalues --   -0.74008  -0.72721  -0.72142  -0.72111  -0.70853
 Alpha  occ. eigenvalues --   -0.70355  -0.69907  -0.69094  -0.67107  -0.66363
 Alpha  occ. eigenvalues --   -0.66017  -0.65199  -0.64025  -0.63525  -0.63232
 Alpha  occ. eigenvalues --   -0.62041  -0.61738  -0.59558  -0.58463  -0.56662
 Alpha  occ. eigenvalues --   -0.56454  -0.55470  -0.54361  -0.53936  -0.52863
 Alpha  occ. eigenvalues --   -0.52056  -0.51748  -0.51571  -0.51271  -0.51138
 Alpha  occ. eigenvalues --   -0.50534  -0.50266  -0.50130  -0.49145  -0.49058
 Alpha  occ. eigenvalues --   -0.48587  -0.48510  -0.48231  -0.47582  -0.47377
 Alpha  occ. eigenvalues --   -0.45876  -0.45433  -0.45157  -0.45017  -0.44713
 Alpha  occ. eigenvalues --   -0.44488  -0.44318  -0.43905  -0.43858  -0.43632
 Alpha  occ. eigenvalues --   -0.43597  -0.43478  -0.43278  -0.43158  -0.43024
 Alpha  occ. eigenvalues --   -0.42565  -0.42493  -0.42417  -0.42106  -0.42004
 Alpha  occ. eigenvalues --   -0.41225  -0.41049  -0.40840  -0.40678  -0.40526
 Alpha  occ. eigenvalues --   -0.40090  -0.39921  -0.39567  -0.39526  -0.39186
 Alpha  occ. eigenvalues --   -0.38881  -0.38623  -0.38524  -0.38360  -0.38143
 Alpha  occ. eigenvalues --   -0.37774  -0.37628  -0.37574  -0.37369  -0.37010
 Alpha  occ. eigenvalues --   -0.36759  -0.36576  -0.36522  -0.35788  -0.35282
 Alpha  occ. eigenvalues --   -0.35198  -0.34735  -0.34375  -0.34034  -0.33336
 Alpha  occ. eigenvalues --   -0.33066  -0.32835  -0.32789  -0.32747  -0.32359
 Alpha  occ. eigenvalues --   -0.31709  -0.31326  -0.30513  -0.29099  -0.28038
 Alpha  occ. eigenvalues --   -0.27829  -0.27478  -0.26894  -0.26277  -0.25015
 Alpha  occ. eigenvalues --   -0.24272  -0.23921  -0.23312  -0.22770  -0.19873
 Alpha  occ. eigenvalues --   -0.18761  -0.18432  -0.18373  -0.17704  -0.13454
 Alpha virt. eigenvalues --   -0.11088  -0.06670  -0.05318  -0.00347  -0.00157
 Alpha virt. eigenvalues --    0.01592   0.01705   0.02717   0.03128   0.03353
 Alpha virt. eigenvalues --    0.03796   0.03937   0.04231   0.04433   0.05029

 Mulliken charges:
               1
     1  C   -0.384899
     2  C    0.172961
     3  N   -0.175180
     4  C   -0.221094
     5  C   -0.025234
     6  N    0.074574
     7  C   -0.341583
     8  C   -0.159271
     9  S    0.052814
    10  C   -0.341820
    11  Fe  -0.510290
    12  C   -0.465848
    13  C   -0.391753
    14  C   -0.527513
    15  C   -0.477464
    16  N    0.044055
    17  C    0.157485
    18  C    0.066207
    19  C   -0.157535
    20  C    0.274116
    21  C   -0.411092
    22  C   -0.250444
    23  C   -0.242693
    24  C    0.259130
    25  O   -0.304423
    26  O   -0.380310
    27  N   -0.013730
    28  C    0.211799
    29  C   -0.005857
    30  C   -0.000474
    31  C    0.136688
    32  C   -0.379978
    33  C   -0.352122
    34  C   -0.335497
    35  N    0.026509
    36  C    0.286573
    37  C   -0.085814
    38  C    0.058531
    39  C    0.169363
    40  C   -0.399200
    41  C   -0.296939
    42  C   -0.308002
    43  N    0.047446
    44  C    0.360607
    45  C   -0.149176
    46  C    0.124222
    47  C    0.113735
    48  C   -0.417167
    49  C   -0.281196
    50  C   -0.225443
    51  C    0.284914
    52  O   -0.373981
    53  O   -0.324860
    54  H    0.140674
    55  H    0.131218
    56  H    0.153222
    57  H    0.128167
    58  H    0.114633
    59  H    0.112424
    60  H    0.113499
    61  H    0.128489
    62  H    0.119767
    63  H    0.106647
    64  H    0.138414
    65  H    0.153322
    66  H    0.140442
    67  H    0.135990
    68  H    0.128976
    69  H    0.142908
    70  H    0.135932
    71  H    0.132298
    72  H    0.124276
    73  H    0.145284
    74  H    0.117864
    75  H    0.129672
    76  H    0.124844
    77  H    0.085352
    78  H    0.131482
    79  H    0.146109
    80  H    0.130692
    81  H    0.133874
    82  H    0.122560
    83  H    0.139081
    84  H    0.137584
    85  H    0.342299
    86  H    0.104262
    87  H    0.119190
    88  H    0.137042
    89  H    0.130050
    90  H    0.131033
    91  H    0.348408
    92  H    0.145302
    93  H    0.132644
    94  H    0.136492
    95  H    0.075212
    96  H    0.170786
    97  H    0.235267
    98  H    0.149839
    99  H    0.122259
   100  H    0.148134
   101  H    0.142237
 Sum of Mulliken charges =  -0.00000

 Dipole moment (field-independent basis, Debye):
    X=              1.3741    Y=             -1.8745    Z=              3.0694  Tot=              3.8501
 Quadrupole moment (field-independent basis, Debye-Ang):
   XX=           -331.2449   YY=           -306.9308   ZZ=           -289.4921
   XY=             11.9009   XZ=             -2.4610   YZ=            -27.3514

  Exact polarizability: 932.074 -41.707 958.952 -38.965 116.967 470.928
 Approx polarizability:2344.169********6345.540-601.1311703.9921210.044

 Normal termination of Gaussian 16 at Sun Feb  5 01:00:42 2023.
