 Gaussian 16, Revision A.03,
 Gaussian 16:  ES64L-G16RevA.03 25-Dec-2016

 ----------------------------------------------------------------------
 # PBE1PBE/def2TZVP empiricaldispersion=GD3BJ scf=maxcycle=999 geom=che
 ck pop=nbo
 ----------------------------------------------------------------------

 ----------
 2ce0_III_H
 ----------
 Structure from the checkpoint file:  "2ce0_III_H.chk"
 Charge =  1 Multiplicity = 6

                         Standard orientation:
 ---------------------------------------------------------------------
 Center     Atomic      Atomic             Coordinates (Angstroms)
 Number     Number       Type             X           Y           Z
 ---------------------------------------------------------------------
      1          6           0        2.463463   -1.764388    4.967158
      2          6           0        1.671824   -1.242089    3.813114
      3          7           0        0.322260   -0.982503    3.904583
      4          6           0        2.029958   -0.959966    2.540211
      5          6           0       -0.115795   -0.558411    2.728594
      6          7           0        0.895494   -0.553455    1.874070
      7          6           0       -0.421372    2.908623   -2.603046
      8          6           0        0.771200    2.054163   -2.914137
      9         16           0        0.606091    0.436851   -2.289596
     10          6           0        1.636523   -0.573279   -3.341828
     11         26           0        0.796276   -0.059784   -0.075413
     12          6           0       -2.587887   -0.250923   -0.200191
     13          6           0        1.024013   -3.405572   -0.724072
     14          6           0        4.184291    0.235404   -0.382558
     15          6           0        0.620957    3.164099    1.021453
     16          7           0       -0.525684   -1.544961   -0.417364
     17          6           0       -1.898986   -1.417457   -0.378922
     18          6           0       -2.491977   -2.718452   -0.564252
     19          6           0       -1.484228   -3.596057   -0.729045
     20          6           0       -0.236515   -2.869092   -0.636142
     21          6           0       -1.580156   -5.118086   -0.959399
     22          6           0       -4.021410   -2.978554   -0.529429
     23          6           0       -4.449672   -3.016010    0.954704
     24          6           0       -5.949539   -3.023321    1.187244
     25          8           0       -6.714296   -2.721101    0.240957
     26          8           0       -6.406437   -3.312859    2.334847
     27          7           0        2.312777   -1.344790   -0.454805
     28          6           0        2.211498   -2.703112   -0.672798
     29          6           0        3.535279   -3.247426   -0.876898
     30          6           0        4.395208   -2.223284   -0.795614
     31          6           0        3.649515   -1.024726   -0.525674
     32          6           0        3.814941   -4.743791   -1.146188
     33          6           0        5.924981   -2.273449   -0.986537
     34          6           0        6.429940   -2.659837   -2.192211
     35          7           0        2.136879    1.426952    0.253084
     36          6           0        3.499967    1.340694    0.052814
     37          6           0        4.099834    2.577362    0.465957
     38          6           0        3.114763    3.383624    0.869834
     39          6           0        1.866369    2.676958    0.740577
     40          6           0        5.619944    2.862370    0.427416
     41          6           0        3.240751    4.817073    1.422345
     42          6           0        3.882389    5.791676    0.753533
     43          7           0       -0.718007    1.235644    0.341334
     44          6           0       -0.563970    2.554020    0.722120
     45          6           0       -1.838128    3.215020    0.754973
     46          6           0       -2.816654    2.154920    0.363077
     47          6           0       -2.057642    0.962911    0.133457
     48          6           0       -2.131335    4.670572    1.099550
     49          6           0       -4.328797    2.354170    0.229184
     50          6           0       -4.634230    2.688767   -1.233410
     51          6           0       -6.118462    2.850153   -1.435948
     52          8           0       -6.560756    4.008450   -1.617805
     53          8           0       -6.835569    1.817834   -1.412658
     54          1           0        3.389156   -2.166535    4.611814
     55          1           0        2.660815   -0.967933    5.653898
     56          1           0        1.907480   -2.532826    5.462421
     57          1           0        3.013718   -1.038184    2.126693
     58          1           0       -0.236596   -1.095875    4.726061
     59          1           0       -1.121210   -0.267758    2.505968
     60          1           0        1.853040   -1.497454   -2.847943
     61          1           0        1.123460   -0.771068   -4.259730
     62          1           0        2.550450   -0.056532   -3.548250
     63          1           0       -0.397312    3.192727   -1.571733
     64          1           0       -0.401005    3.785944   -3.215249
     65          1           0       -1.316671    2.356834   -2.800199
     66          1           0        1.641577    2.504358   -2.484405
     67          1           0        0.894515    2.004687   -3.975855
     68          1           0        6.731505   -1.795476   -2.746141
     69          1           0        7.275466   -3.296967   -2.037130
     70          1           0        5.679240   -3.190383   -2.739817
     71          1           0        6.580750   -2.008586   -0.183596
     72          1           0        3.595704    6.743802    1.148715
     73          1           0        4.939008    5.663488    0.863189
     74          1           0        3.622926    5.743108   -0.283395
     75          1           0        2.802277    5.044795    2.371440
     76          1           0        6.152727    1.941426    0.313814
     77          1           0        5.841233    3.506573   -0.397771
     78          1           0        5.917220    3.336229    1.339548
     79          1           0        5.217223    0.362616   -0.631091
     80          1           0        4.237736   -5.190790   -0.270782
     81          1           0        2.899066   -5.239075   -1.392699
     82          1           0        4.501587   -4.837216   -1.961473
     83          1           0        1.092606   -4.466679   -0.843432
     84          1           0       -1.116962   -5.632222   -0.143301
     85          1           0       -2.608979   -5.404924   -1.023805
     86          1           0       -1.081078   -5.373017   -1.870898
     87          1           0       -4.241764   -3.916161   -0.995515
     88          1           0       -4.536308   -2.189748   -1.036937
     89          1           0       -4.035321   -3.895023    1.402531
     90          1           0       -4.037068   -2.159589    1.445826
     91          1           0       -5.944346   -3.945303    2.889903
     92          1           0       -6.462881    0.980863   -1.125981
     93          1           0       -4.276062    1.898097   -1.859077
     94          1           0       -4.140245    3.600278   -1.498033
     95          1           0       -4.838256    1.455741    0.508787
     96          1           0       -4.644629    3.160045    0.858244
     97          1           0       -3.648539   -0.292479   -0.335059
     98          1           0       -1.227983    5.152446    1.410440
     99          1           0       -2.523160    5.169169    0.237706
    100          1           0       -2.848689    4.711876    1.892391
    101          1           0        0.569268    4.108891    1.521050
 ---------------------------------------------------------------------

 SCF Done:  E(UPBE1PBE) =  -3880.37936379     A.U. after   64 cycles

 Alpha virt. eigenvalues --    0.93650   0.94140   0.94378   0.94632   0.94904
 Alpha virt. eigenvalues --    0.95491   0.95632   0.95920   0.96185   0.96502
 Alpha virt. eigenvalues --    0.96715   0.97089   0.97264   0.97653   0.97937

  Beta  occ. eigenvalues -- -256.51163 -89.11958 -30.25720 -26.09113 -26.08985
  Beta  occ. eigenvalues --  -26.07955 -19.34611 -19.33427 -19.25933 -19.23533
  Beta  occ. eigenvalues --  -14.55265 -14.49356 -14.49139 -14.49058 -14.48919
  Beta  occ. eigenvalues --  -14.48683 -10.43650 -10.41357 -10.39100 -10.36380
  Beta  occ. eigenvalues --  -10.36043 -10.35953 -10.35882 -10.35859 -10.35792
  Beta  occ. eigenvalues --  -10.35768 -10.35664 -10.35554 -10.34212 -10.34028
  Beta  occ. eigenvalues --  -10.34024 -10.33403 -10.33105 -10.32973 -10.32969
  Beta  occ. eigenvalues --  -10.32883 -10.32840 -10.32769 -10.32684 -10.32623
  Beta  occ. eigenvalues --  -10.32574 -10.32562 -10.32464 -10.32409 -10.32369
  Beta  occ. eigenvalues --  -10.32283 -10.31887 -10.30761 -10.30717 -10.30701
  Beta  occ. eigenvalues --  -10.30610 -10.30595 -10.30487 -10.30428 -10.29172
  Beta  occ. eigenvalues --  -10.28527 -10.28138  -8.10168  -6.03817  -6.03490
  Beta  occ. eigenvalues --   -6.02938  -3.56381  -2.32494  -2.32253  -2.28590
  Beta  occ. eigenvalues --   -1.24252  -1.23220  -1.17140  -1.10622  -1.09445
  Beta  occ. eigenvalues --   -1.08549  -1.08532  -1.08196  -1.07017  -1.01699
  Beta  occ. eigenvalues --   -0.95231  -0.95113  -0.93299  -0.92845  -0.92511
  Beta  occ. eigenvalues --   -0.92214  -0.92149  -0.91761  -0.91502  -0.88828
  Beta  occ. eigenvalues --   -0.88307  -0.87694  -0.87597  -0.86992  -0.86890
  Beta  occ. eigenvalues --   -0.84532  -0.82631  -0.82087  -0.81753  -0.81473
  Beta  occ. eigenvalues --   -0.79796  -0.78420  -0.77512  -0.77292  -0.76752
  Beta  occ. eigenvalues --   -0.76236  -0.75490  -0.74910  -0.74336  -0.72870
  Beta  occ. eigenvalues --   -0.70919  -0.70493  -0.70194  -0.70035  -0.69347
  Beta  occ. eigenvalues --   -0.67216  -0.66710  -0.65409  -0.64713  -0.63864
  Beta  occ. eigenvalues --   -0.63042  -0.62740  -0.62576  -0.62076  -0.61300
  Beta  occ. eigenvalues --   -0.60104  -0.59652  -0.59120  -0.58927  -0.58636
  Beta  occ. eigenvalues --   -0.58422  -0.58377  -0.57598  -0.57205  -0.56463
  Beta  occ. eigenvalues --   -0.56122  -0.55706  -0.55451  -0.55277  -0.55233
  Beta  occ. eigenvalues --   -0.55131  -0.54728  -0.54456  -0.54324  -0.54103
  Beta  occ. eigenvalues --   -0.53838  -0.53692  -0.53352  -0.53212  -0.53082
  Beta  occ. eigenvalues --   -0.52887  -0.52625  -0.52365  -0.52210  -0.52123
  Beta  occ. eigenvalues --   -0.51838  -0.51713  -0.51453  -0.51348  -0.51176
  Beta  occ. eigenvalues --   -0.50739  -0.50381  -0.50294  -0.50066  -0.49887
  Beta  occ. eigenvalues --   -0.49610  -0.49340  -0.48982  -0.48841  -0.48465
  Beta  occ. eigenvalues --   -0.48169  -0.48148  -0.47964  -0.47634  -0.47533
  Beta  occ. eigenvalues --   -0.47331  -0.47159  -0.46473  -0.46214  -0.46018
  Beta  occ. eigenvalues --   -0.45644  -0.45467  -0.44591  -0.44157  -0.43890
  Beta  occ. eigenvalues --   -0.43684  -0.43539  -0.43510  -0.43244  -0.43055
  Beta  occ. eigenvalues --   -0.42176  -0.41194  -0.40790  -0.39322  -0.39156
  Beta  occ. eigenvalues --   -0.38439  -0.37159  -0.36649  -0.36043  -0.35553
  Beta  occ. eigenvalues --   -0.35152  -0.34600  -0.33974  -0.33687  -0.32585
  Beta  occ. eigenvalues --   -0.30365  -0.30184
  Beta virt. eigenvalues --   -0.20038  -0.19603  -0.16026  -0.15723  -0.13714
  Beta virt. eigenvalues --   -0.12783  -0.11003  -0.10654  -0.09722  -0.08410
  Beta virt. eigenvalues --   -0.08004  -0.07741  -0.06726  -0.06056  -0.05720

 Mulliken charges and spin densities:
               1          2
     1  C   -0.374561   0.001264
     2  C    0.160402   0.003555
     3  N   -0.205823   0.004847
     4  C   -0.193578   0.002581
     5  C    0.024729   0.012262
     6  N    0.038451   0.051218
     7  C   -0.352595  -0.000703
     8  C   -0.182489   0.008264
     9  S    0.035198   0.096225
    10  C   -0.374978   0.004944
    11  Fe  -0.311128   2.905799
    12  C   -0.553240  -0.019597
    13  C   -0.500385   0.013057
    14  C   -0.517807   0.026701
    15  C   -0.460081  -0.006822
    16  N    0.076812  -0.059966
    17  C    0.291911   0.022646
    18  C    0.018809   0.000708
    19  C   -0.083281   0.016082
    20  C    0.226739  -0.000732
    21  C   -0.385861  -0.001596
    22  C   -0.306214  -0.000754
    23  C   -0.296466   0.000330
    24  C    0.331287   0.000055
    25  O   -0.360113   0.000032
    26  O   -0.302394   0.000011
    27  N   -0.002595  -0.034424
    28  C    0.272458  -0.007810
    29  C   -0.102306   0.086903
    30  C    0.101636  -0.097994
    31  C    0.108074   0.014569
    32  C   -0.342791  -0.004950
    33  C   -0.254760   0.959773
    34  C   -0.325492  -0.066925
    35  N    0.058145  -0.044324
    36  C    0.308312  -0.007641
    37  C   -0.055467   0.118352
    38  C    0.034661  -0.122755
    39  C    0.204197   0.035394
    40  C   -0.394035  -0.009066
    41  C   -0.268276   0.943490
    42  C   -0.313331  -0.071226
    43  N    0.015890  -0.057981
    44  C    0.206852   0.020986
    45  C   -0.094206   0.022652
    46  C    0.105502   0.020714
    47  C    0.221498   0.024295
    48  C   -0.372652  -0.001808
    49  C   -0.368930  -0.002656
    50  C   -0.266548   0.001332
    51  C    0.318291   0.000218
    52  O   -0.358421   0.000251
    53  O   -0.275104   0.000023
    54  H    0.151340   0.000002
    55  H    0.157219   0.000118
    56  H    0.140712   0.000146
    57  H    0.157663   0.000945
    58  H    0.245886   0.001895
    59  H    0.177543   0.000398
    60  H    0.166575  -0.000009
    61  H    0.170530   0.003454
    62  H    0.151839   0.001140
    63  H    0.131090   0.000226
    64  H    0.147261   0.000346
    65  H    0.120200   0.000309
    66  H    0.128353   0.002761
    67  H    0.152355   0.005445
    68  H    0.142408   0.077814
    69  H    0.140604   0.033265
    70  H    0.123910   0.009056
    71  H    0.149191  -0.046464
    72  H    0.138585   0.007059
    73  H    0.141784   0.084868
    74  H    0.132564   0.041791
    75  H    0.141488  -0.047913
    76  H    0.129509   0.000539
    77  H    0.160702   0.003569
    78  H    0.158324   0.004267
    79  H    0.149101  -0.000283
    80  H    0.155991   0.003778
    81  H    0.128659  -0.000089
    82  H    0.138655   0.002241
    83  H    0.135271  -0.000912
    84  H    0.145684   0.000763
    85  H    0.137457  -0.000126
    86  H    0.152200   0.000654
    87  H    0.142424  -0.000103
    88  H    0.142456   0.000067
    89  H    0.133007  -0.000003
    90  H    0.149382  -0.000009
    91  H    0.343352  -0.000002
    92  H    0.340690  -0.000003
    93  H    0.148233  -0.000055
    94  H    0.134207  -0.000083
    95  H    0.138931   0.000355
    96  H    0.145769   0.000163
    97  H    0.115680   0.000437
    98  H    0.128445   0.000075
    99  H    0.158878   0.001060
   100  H    0.155122   0.000905
   101  H    0.118826   0.006349
 Sum of Mulliken charges =   1.00000   5.00000

 Dipole moment (field-independent basis, Debye):
    X=             11.4891    Y=             -5.6346    Z=              6.5910  Tot=             14.3941
 Quadrupole moment (field-independent basis, Debye-Ang):
   XX=           -316.6820   YY=           -262.1095   ZZ=           -265.0357
   XY=             31.6220   XZ=            -28.7030   YZ=             -3.1365

 Summary of Natural Population Analysis:

                                       Natural Population
                Natural  -----------------------------------------------
    Atom  No    Charge         Core      Valence    Rydberg      Total
 -----------------------------------------------------------------------
      C    1   -0.32066      0.99969     2.31777    0.00320     3.32066
      C    2    0.06262      0.99954     1.92883    0.00901     2.93738
      N    3   -0.23297      0.99968     2.72363    0.00965     3.73297
      C    4   -0.03085      0.99942     2.02226    0.00918     3.03085
      C    5    0.11298      0.99964     1.87682    0.01056     2.88702
      N    6   -0.15327      0.99970     2.63228    0.02128     3.65327
      C    7   -0.30417      0.99972     2.29847    0.00598     3.30417
      C    8   -0.27407      0.99966     2.26422    0.01019     3.27407
      S    9    0.35981      4.99907     2.61907    0.02204     7.64019
      C   10   -0.36765      0.99963     2.35916    0.00885     3.36765
     Fe   11    1.48121      8.99561     2.49339    0.02979    11.51879
      C   12   -0.12469      0.99945     2.11603    0.00921     3.12469
      C   13   -0.11196      0.99947     2.10406    0.00843     3.11196
      C   14   -0.11318      0.99946     2.10544    0.00828     3.11318
      C   15   -0.11201      0.99945     2.10405    0.00851     3.11201
      N   16   -0.20982      0.99968     2.68686    0.02328     3.70982
      C   17    0.08666      0.99949     1.90297    0.01089     2.91334
      C   18   -0.00652      0.99938     1.99771    0.00943     3.00652
      C   19    0.00577      0.99940     1.98676    0.00807     2.99423
      C   20    0.08025      0.99951     1.90945    0.01079     2.91975
      C   21   -0.31990      0.99970     2.31678    0.00341     3.31990
      C   22   -0.20667      0.99968     2.19954    0.00745     3.20667
      C   23   -0.25704      0.99963     2.24892    0.00850     3.25704
      C   24    0.37973      0.99975     1.60381    0.01671     2.62027
      O   25   -0.28866      0.99989     3.27676    0.01201     4.28866
      O   26   -0.31714      0.99982     3.30232    0.01500     4.31714
      N   27   -0.21225      0.99969     2.68940    0.02316     3.71225
      C   28    0.07437      0.99951     1.91505    0.01107     2.92563
      C   29    0.03825      0.99936     1.95405    0.00834     2.96175
      C   30   -0.07733      0.99937     2.06792    0.01004     3.07733
      C   31    0.09735      0.99949     1.89272    0.01044     2.90265
      C   32   -0.31793      0.99969     2.31475    0.00348     3.31793
      C   33    0.40665      0.99960     1.58621    0.00754     2.59335
      C   34   -0.36617      0.99964     2.35891    0.00762     3.36617
      N   35   -0.20410      0.99969     2.68133    0.02308     3.70410
      C   36    0.07450      0.99950     1.91490    0.01111     2.92550
      C   37    0.05534      0.99919     1.93434    0.01113     2.94466
      C   38   -0.08132      0.99937     2.07156    0.01039     3.08132
      C   39    0.10399      0.99950     1.88579    0.01073     2.89601
      C   40   -0.32160      0.99970     2.31844    0.00346     3.32160
      C   41    0.39771      0.99957     1.59498    0.00774     2.60229
      C   42   -0.36968      0.99962     2.36189    0.00818     3.36968
      N   43   -0.22320      0.99969     2.70095    0.02256     3.72320
      C   44    0.07408      0.99946     1.91521    0.01126     2.92592
      C   45    0.01814      0.99956     1.97405    0.00824     2.98186
      C   46    0.01464      0.99956     1.97729    0.00852     2.98536
      C   47    0.07151      0.99945     1.91799    0.01104     2.92849
      C   48   -0.32406      0.99968     2.31839    0.00599     3.32406
      C   49   -0.21553      0.99966     2.20927    0.00660     3.21553
      C   50   -0.24994      0.99963     2.24177    0.00854     3.24994
      C   51    0.37694      0.99973     1.60603    0.01730     2.62306
      O   52   -0.28564      0.99990     3.27378    0.01197     4.28564
      O   53   -0.31010      0.99981     3.29478    0.01551     4.31010
      H   54    0.12012      0.00000     0.37942    0.00046     0.37988
      H   55    0.11609      0.00000     0.38324    0.00067     0.38391
      H   56    0.11298      0.00000     0.38637    0.00065     0.38702
      H   57    0.11834      0.00000     0.38087    0.00079     0.38166
      H   58    0.21243      0.00000     0.28681    0.00076     0.28757
      H   59    0.11455      0.00000     0.38457    0.00088     0.38545
      H   60    0.12516      0.00000     0.37429    0.00055     0.37484
      H   61    0.11826      0.00000     0.38122    0.00052     0.38174
      H   62    0.11427      0.00000     0.38497    0.00076     0.38573
      H   63    0.10942      0.00000     0.38966    0.00092     0.39058
      H   64    0.11424      0.00000     0.38520    0.00056     0.38576
      H   65    0.10761      0.00000     0.39131    0.00108     0.39239
      H   66    0.11160      0.00000     0.38728    0.00112     0.38840
      H   67    0.12054      0.00000     0.37876    0.00070     0.37946
      H   68    0.15538      0.00000     0.34415    0.00047     0.34462
      H   69    0.13377      0.00000     0.36572    0.00051     0.36623
      H   70    0.11431      0.00000     0.38499    0.00070     0.38569
      H   71    0.08241      0.00000     0.41681    0.00078     0.41759
      H   72    0.12173      0.00000     0.37778    0.00049     0.37827
      H   73    0.15651      0.00000     0.34289    0.00060     0.34349
      H   74    0.13316      0.00000     0.36623    0.00061     0.36684
      H   75    0.08148      0.00000     0.41777    0.00075     0.41852
      H   76    0.10961      0.00000     0.38978    0.00061     0.39039
      H   77    0.11685      0.00000     0.38249    0.00066     0.38315
      H   78    0.11703      0.00000     0.38232    0.00066     0.38297
      H   79    0.11775      0.00000     0.38113    0.00112     0.38225
      H   80    0.11810      0.00000     0.38124    0.00066     0.38190
      H   81    0.10904      0.00000     0.39039    0.00057     0.39096
      H   82    0.11527      0.00000     0.38400    0.00073     0.38473
      H   83    0.11459      0.00000     0.38413    0.00129     0.38541
      H   84    0.11305      0.00000     0.38627    0.00068     0.38695
      H   85    0.11280      0.00000     0.38651    0.00069     0.38720
      H   86    0.11535      0.00000     0.38397    0.00068     0.38465
      H   87    0.11594      0.00000     0.38333    0.00072     0.38406
      H   88    0.11767      0.00000     0.38150    0.00083     0.38233
      H   89    0.10802      0.00000     0.39116    0.00082     0.39198
      H   90    0.11594      0.00000     0.38341    0.00066     0.38406
      H   91    0.25115      0.00000     0.24778    0.00107     0.24885
      H   92    0.24948      0.00000     0.24966    0.00086     0.25052
      H   93    0.10572      0.00000     0.39353    0.00075     0.39428
      H   94    0.12113      0.00000     0.37811    0.00076     0.37887
      H   95    0.10317      0.00000     0.39588    0.00094     0.39683
      H   96    0.11822      0.00000     0.38067    0.00111     0.38178
      H   97    0.11113      0.00000     0.38700    0.00186     0.38887
      H   98    0.11158      0.00000     0.38799    0.00044     0.38842
      H   99    0.11982      0.00000     0.37954    0.00065     0.38018
      H  100    0.11806      0.00000     0.38136    0.00057     0.38194
      H  101    0.11678      0.00000     0.38193    0.00128     0.38322
 =======================================================================
   * Total *    3.00002     64.97375   136.39448    0.63175   201.99998

 Normal termination of Gaussian 16 at Tue Feb 21 10:30:21 2023.
