 Gaussian 16, Revision A.03,
 Gaussian 16:  ES64L-G16RevA.03 25-Dec-2016

 ---------------------------------------------------------------------
 # polar def2tzvp empiricaldispersion=gd3bj int=grid=ultrafine pbe1pbe
 ---------------------------------------------------------------------

 ---------
 2ce0_II_S
 ---------
 Symbolic Z-matrix:
 Charge =  0 Multiplicity = 1

                         Standard orientation:
 ---------------------------------------------------------------------
 Center     Atomic      Atomic             Coordinates (Angstroms)
 Number     Number       Type             X           Y           Z
 ---------------------------------------------------------------------
      1          6           0        2.463463   -1.764388    4.967158
      2          6           0        1.671824   -1.242089    3.813114
      3          7           0        0.322260   -0.982503    3.904583
      4          6           0        2.029958   -0.959966    2.540211
      5          6           0       -0.115795   -0.558411    2.728594
      6          7           0        0.895494   -0.553455    1.874070
      7          6           0       -0.421372    2.908623   -2.603046
      8          6           0        0.771200    2.054163   -2.914137
      9         16           0        0.606091    0.436851   -2.289596
     10          6           0        1.636523   -0.573279   -3.341828
     11         26           0        0.796276   -0.059784   -0.075413
     12          6           0       -2.587887   -0.250923   -0.200191
     13          6           0        1.024013   -3.405572   -0.724072
     14          6           0        4.184291    0.235404   -0.382558
     15          6           0        0.620957    3.164099    1.021453
     16          7           0       -0.525684   -1.544961   -0.417364
     17          6           0       -1.898986   -1.417457   -0.378922
     18          6           0       -2.491977   -2.718452   -0.564252
     19          6           0       -1.484228   -3.596057   -0.729045
     20          6           0       -0.236515   -2.869092   -0.636142
     21          6           0       -1.580156   -5.118086   -0.959399
     22          6           0       -4.021410   -2.978554   -0.529429
     23          6           0       -4.449672   -3.016010    0.954704
     24          6           0       -5.949539   -3.023321    1.187244
     25          8           0       -6.714296   -2.721101    0.240957
     26          8           0       -6.406437   -3.312859    2.334847
     27          7           0        2.312777   -1.344790   -0.454805
     28          6           0        2.211498   -2.703112   -0.672798
     29          6           0        3.535279   -3.247426   -0.876898
     30          6           0        4.395208   -2.223284   -0.795614
     31          6           0        3.649515   -1.024726   -0.525674
     32          6           0        3.814941   -4.743791   -1.146188
     33          6           0        5.924981   -2.273449   -0.986537
     34          6           0        6.429940   -2.659837   -2.192211
     35          7           0        2.136879    1.426952    0.253084
     36          6           0        3.499967    1.340694    0.052814
     37          6           0        4.099834    2.577362    0.465957
     38          6           0        3.114763    3.383624    0.869834
     39          6           0        1.866369    2.676958    0.740577
     40          6           0        5.619944    2.862370    0.427416
     41          6           0        3.240751    4.817073    1.422345
     42          6           0        3.882389    5.791676    0.753533
     43          7           0       -0.718007    1.235644    0.341334
     44          6           0       -0.563970    2.554020    0.722120
     45          6           0       -1.838128    3.215020    0.754973
     46          6           0       -2.816654    2.154920    0.363077
     47          6           0       -2.057642    0.962911    0.133457
     48          6           0       -2.131335    4.670572    1.099550
     49          6           0       -4.328797    2.354170    0.229184
     50          6           0       -4.634230    2.688767   -1.233410
     51          6           0       -6.118462    2.850153   -1.435948
     52          8           0       -6.560756    4.008450   -1.617805
     53          8           0       -6.835569    1.817834   -1.412658
     54          1           0        3.389156   -2.166535    4.611814
     55          1           0        2.660815   -0.967933    5.653898
     56          1           0        1.907480   -2.532826    5.462421
     57          1           0        3.013718   -1.038184    2.126693
     58          1           0       -0.236596   -1.095875    4.726061
     59          1           0       -1.121210   -0.267758    2.505968
     60          1           0        1.853040   -1.497454   -2.847943
     61          1           0        1.123460   -0.771068   -4.259730
     62          1           0        2.550450   -0.056532   -3.548250
     63          1           0       -0.397312    3.192727   -1.571733
     64          1           0       -0.401005    3.785944   -3.215249
     65          1           0       -1.316671    2.356834   -2.800199
     66          1           0        1.641577    2.504358   -2.484405
     67          1           0        0.894515    2.004687   -3.975855
     68          1           0        6.731505   -1.795476   -2.746141
     69          1           0        7.275466   -3.296967   -2.037130
     70          1           0        5.679240   -3.190383   -2.739817
     71          1           0        6.580750   -2.008586   -0.183596
     72          1           0        3.595704    6.743802    1.148715
     73          1           0        4.939008    5.663488    0.863189
     74          1           0        3.622926    5.743108   -0.283395
     75          1           0        2.802277    5.044795    2.371440
     76          1           0        6.152727    1.941426    0.313814
     77          1           0        5.841233    3.506573   -0.397771
     78          1           0        5.917220    3.336229    1.339548
     79          1           0        5.217223    0.362616   -0.631091
     80          1           0        4.237736   -5.190790   -0.270782
     81          1           0        2.899066   -5.239075   -1.392699
     82          1           0        4.501587   -4.837216   -1.961473
     83          1           0        1.092606   -4.466679   -0.843432
     84          1           0       -1.116962   -5.632222   -0.143301
     85          1           0       -2.608979   -5.404924   -1.023805
     86          1           0       -1.081078   -5.373017   -1.870898
     87          1           0       -4.241764   -3.916161   -0.995515
     88          1           0       -4.536308   -2.189748   -1.036937
     89          1           0       -4.035321   -3.895023    1.402531
     90          1           0       -4.037068   -2.159589    1.445826
     91          1           0       -5.944346   -3.945303    2.889903
     92          1           0       -6.462881    0.980863   -1.125981
     93          1           0       -4.276062    1.898097   -1.859077
     94          1           0       -4.140245    3.600278   -1.498033
     95          1           0       -4.838256    1.455741    0.508787
     96          1           0       -4.644629    3.160045    0.858244
     97          1           0       -3.648539   -0.292479   -0.335059
     98          1           0       -1.227983    5.152446    1.410440
     99          1           0       -2.523160    5.169169    0.237706
    100          1           0       -2.848689    4.711876    1.892391
    101          1           0        0.569268    4.108891    1.521050
 ---------------------------------------------------------------------

 SCF Done:  E(RPBE1PBE) =  -3880.51777553     A.U. after   33 cycles

 The electronic state is 1-A.
 Alpha  occ. eigenvalues -- -256.31064 -89.01015 -30.07970 -25.90775 -25.90502
 Alpha  occ. eigenvalues --  -25.90319 -19.27699 -19.26202 -19.18733 -19.16269
 Alpha  occ. eigenvalues --  -14.45121 -14.39359 -14.37065 -14.36859 -14.36252
 Alpha  occ. eigenvalues --  -14.36192 -10.36317 -10.33911 -10.28282 -10.26348
 Alpha  occ. eigenvalues --  -10.24428 -10.24256 -10.24251 -10.24212 -10.24173
 Alpha  occ. eigenvalues --  -10.24142 -10.24044 -10.23996 -10.23917 -10.23698
 Alpha  occ. eigenvalues --  -10.23402 -10.23349 -10.23349 -10.23228 -10.22994
 Alpha  occ. eigenvalues --  -10.22972 -10.22904 -10.22775 -10.22329 -10.22309
 Alpha  occ. eigenvalues --  -10.22154 -10.22072 -10.21966 -10.21769 -10.21725
 Alpha  occ. eigenvalues --  -10.21690 -10.21640 -10.21592 -10.21277 -10.21198
 Alpha  occ. eigenvalues --  -10.21188 -10.21087 -10.20937 -10.20718 -10.20300
 Alpha  occ. eigenvalues --  -10.20184 -10.19344  -7.98999  -5.92671  -5.92346
 Alpha  occ. eigenvalues --   -5.91810  -3.42413  -2.18420  -2.17798  -2.17518
 Alpha  occ. eigenvalues --   -1.17292  -1.15967  -1.06863  -1.03461  -1.01327
 Alpha  occ. eigenvalues --   -0.97563  -0.96847  -0.96235  -0.95165  -0.91268
 Alpha  occ. eigenvalues --   -0.84414  -0.84166  -0.83533  -0.83409  -0.83089
 Alpha  occ. eigenvalues --   -0.82760  -0.81910  -0.81093  -0.80824  -0.79113
 Alpha  occ. eigenvalues --   -0.78757  -0.78076  -0.77671  -0.76523  -0.75653
 Alpha  occ. eigenvalues --   -0.74193  -0.73119  -0.72429  -0.71781  -0.71414
 Alpha  occ. eigenvalues --   -0.70144  -0.69333  -0.68379  -0.67167  -0.66962
 Alpha  occ. eigenvalues --   -0.66321  -0.65663  -0.65258  -0.65084  -0.62667
 Alpha  occ. eigenvalues --   -0.61834  -0.61364  -0.59741  -0.59141  -0.57844
 Alpha  occ. eigenvalues --   -0.57015  -0.56315  -0.55179  -0.54724  -0.54262
 Alpha  occ. eigenvalues --   -0.53800  -0.52980  -0.52300  -0.51752  -0.51370
 Alpha  occ. eigenvalues --   -0.51166  -0.49806  -0.49321  -0.48962  -0.48616
 Alpha  occ. eigenvalues --   -0.48471  -0.48203  -0.48156  -0.48102  -0.47000
 Alpha  occ. eigenvalues --   -0.46820  -0.46435  -0.46182  -0.45900  -0.45461
 Alpha  occ. eigenvalues --   -0.45126  -0.44805  -0.44783  -0.44619  -0.44553
 Alpha  occ. eigenvalues --   -0.44224  -0.44100  -0.43926  -0.43763  -0.43682
 Alpha  occ. eigenvalues --   -0.43512  -0.43350  -0.43103  -0.42849  -0.42741
 Alpha  occ. eigenvalues --   -0.42686  -0.42647  -0.42268  -0.41515  -0.41176
 Alpha  occ. eigenvalues --   -0.40976  -0.40640  -0.40404  -0.40289  -0.40105
 Alpha  occ. eigenvalues --   -0.39612  -0.39490  -0.39336  -0.38971  -0.38731
 Alpha  occ. eigenvalues --   -0.38674  -0.38330  -0.38071  -0.37748  -0.37507
 Alpha  occ. eigenvalues --   -0.37287  -0.37142  -0.36597  -0.36377  -0.36028
 Alpha  occ. eigenvalues --   -0.35516  -0.35273  -0.34578  -0.34023  -0.33796
 Alpha  occ. eigenvalues --   -0.33698  -0.33408  -0.32581  -0.32399  -0.32244
 Alpha  occ. eigenvalues --   -0.31320  -0.31073  -0.29785  -0.29440  -0.28805
 Alpha  occ. eigenvalues --   -0.28264  -0.28051  -0.26463  -0.26160  -0.25441
 Alpha  occ. eigenvalues --   -0.24687  -0.24167  -0.22701  -0.22544  -0.20146
 Alpha  occ. eigenvalues --   -0.19446  -0.18914  -0.18588  -0.18362  -0.13361
 Alpha virt. eigenvalues --   -0.11058  -0.06972  -0.06350  -0.00887  -0.00800
 Alpha virt. eigenvalues --    0.00215   0.01414   0.01632   0.02000   0.02376
 Alpha virt. eigenvalues --    0.03140   0.03459   0.03929   0.04663   0.04897

 Mulliken charges:
               1
     1  C   -0.388385
     2  C    0.175185
     3  N   -0.222021
     4  C   -0.198880
     5  C    0.014518
     6  N    0.070291
     7  C   -0.336890
     8  C   -0.172319
     9  S    0.048619
    10  C   -0.374854
    11  Fe  -0.409686
    12  C   -0.582347
    13  C   -0.503539
    14  C   -0.541783
    15  C   -0.472041
    16  N    0.061848
    17  C    0.292588
    18  C    0.012126
    19  C   -0.081529
    20  C    0.215172
    21  C   -0.402830
    22  C   -0.314387
    23  C   -0.293057
    24  C    0.329383
    25  O   -0.370116
    26  O   -0.311397
    27  N   -0.014476
    28  C    0.261694
    29  C   -0.104331
    30  C    0.116932
    31  C    0.086468
    32  C   -0.359158
    33  C   -0.318317
    34  C   -0.295166
    35  N    0.052187
    36  C    0.305945
    37  C   -0.070429
    38  C    0.044432
    39  C    0.200319
    40  C   -0.412184
    41  C   -0.317715
    42  C   -0.288354
    43  N    0.009120
    44  C    0.204914
    45  C   -0.098677
    46  C    0.086331
    47  C    0.225776
    48  C   -0.391986
    49  C   -0.383078
    50  C   -0.256676
    51  C    0.316916
    52  O   -0.377140
    53  O   -0.286523
    54  H    0.147808
    55  H    0.143714
    56  H    0.126425
    57  H    0.150039
    58  H    0.228835
    59  H    0.166651
    60  H    0.165635
    61  H    0.146558
    62  H    0.134435
    63  H    0.135440
    64  H    0.120925
    65  H    0.107281
    66  H    0.118539
    67  H    0.128468
    68  H    0.137447
    69  H    0.118801
    70  H    0.123087
    71  H    0.136232
    72  H    0.123730
    73  H    0.132412
    74  H    0.135904
    75  H    0.131580
    76  H    0.122025
    77  H    0.141970
    78  H    0.137388
    79  H    0.124324
    80  H    0.135871
    81  H    0.119483
    82  H    0.119478
    83  H    0.111691
    84  H    0.134437
    85  H    0.121767
    86  H    0.141339
    87  H    0.127471
    88  H    0.134669
    89  H    0.124329
    90  H    0.156202
    91  H    0.339521
    92  H    0.344967
    93  H    0.149272
    94  H    0.127094
    95  H    0.129055
    96  H    0.132691
    97  H    0.093026
    98  H    0.121625
    99  H    0.143832
   100  H    0.137885
   101  H    0.088150
 Sum of Mulliken charges =  -0.00000

 Dipole moment (field-independent basis, Debye):
    X=              7.6515    Y=             -5.6115    Z=              6.8249  Tot=             11.6882
 Quadrupole moment (field-independent basis, Debye-Ang):
   XX=           -383.1498   YY=           -313.4273   ZZ=           -288.4160
   XY=             34.5234   XZ=            -27.8277   YZ=             -6.9430

  Exact polarizability: 916.433 -63.8511001.908 -38.329 135.069 469.890
 Approx polarizability:2240.697********7096.100-648.1602066.9981344.612

 Normal termination of Gaussian 16 at Sat Jan 28 03:41:21 2023.
