 Gaussian 16, Revision A.03,
 Gaussian 16:  ES64L-G16RevA.03 25-Dec-2016

 ---------------------------------------------------------------------
 # polar def2tzvp empiricaldispersion=gd3bj int=grid=ultrafine pbe1pbe
 ---------------------------------------------------------------------

 ---------
 2gsm_II_S
 ---------
 Symbolic Z-matrix:
 Charge =  0 Multiplicity = 1

                         Standard orientation:
 ---------------------------------------------------------------------
 Center     Atomic      Atomic             Coordinates (Angstroms)
 Number     Number       Type             X           Y           Z
 ---------------------------------------------------------------------
      1          6           0       -0.484073   -0.887374    5.091567
      2          6           0        0.336697   -0.781941    3.830978
      3          7           0        1.677180   -1.103268    3.790683
      4          6           0        0.016619   -0.359343    2.579353
      5          6           0        2.149586   -0.882227    2.571856
      6          7           0        1.159835   -0.438291    1.812783
      7         26           0        0.974377   -0.010954   -0.243987
      8          6           0       -2.481787   -0.043760   -0.173503
      9          6           0        0.994501   -3.405448   -0.947618
     10          6           0        4.404886    0.063964   -0.693949
     11          6           0        0.944276    3.409136    0.005987
     12          7           0       -0.491197   -1.485253   -0.505078
     13          6           0       -1.855518   -1.242786   -0.494225
     14          6           0       -2.505525   -2.484873   -0.848488
     15          6           0       -1.554242   -3.414153   -1.072982
     16          6           0       -0.257906   -2.805091   -0.849274
     17          6           0       -1.820921   -4.846180   -1.492801
     18          6           0       -4.022502   -2.708520   -0.968752
     19          6           0       -4.598704   -3.129892    0.382473
     20          6           0       -6.111217   -3.098664    0.319178
     21          8           0       -6.743707   -4.108768    0.723992
     22          8           0       -6.702290   -2.073983   -0.132184
     23          7           0        2.466970   -1.440441   -0.779016
     24          6           0        2.244638   -2.794435   -0.913679
     25          6           0        3.555984   -3.425778   -1.011566
     26          6           0        4.495811   -2.467895   -0.949943
     27          6           0        3.820158   -1.180126   -0.795191
     28          6           0        3.826057   -4.935884   -1.161370
     29          7           0        2.413041    1.468102   -0.323802
     30          6           0        3.766960    1.281728   -0.527442
     31          6           0        4.403287    2.580486   -0.525571
     32          6           0        3.454160    3.520970   -0.320641
     33          6           0        2.174004    2.835371   -0.187367
     34          6           0        5.906364    2.814711   -0.744865
     35          6           0        3.658948    5.040420   -0.256812
     36          6           0        4.843300    5.563744    0.062257
     37          7           0       -0.526095    1.433201   -0.082061
     38          6           0       -0.305334    2.790365   -0.039597
     39          6           0       -1.612054    3.435314   -0.023057
     40          6           0       -2.551164    2.480890   -0.069431
     41          6           0       -1.880074    1.193226   -0.109880
     42          6           0       -1.843228    4.962158    0.023728
     43          6           0       -4.071936    2.634934   -0.040395
     44          6           0       -4.737706    3.160893   -1.309317
     45          6           0       -6.178493    3.393272   -0.877250
     46          8           0       -7.002076    2.444447   -0.922654
     47          8           0       -6.490628    4.531843   -0.470296
     48          6           0        6.019037   -2.677899   -1.126936
     49          6           0        6.728159   -2.758400    0.236239
     50          1           0        6.294479   -3.544776    0.817990
     51          1           0        7.768537   -2.958123    0.085830
     52          1           0        6.614579   -1.828280    0.752840
     53          1           0        6.187815   -3.587454   -1.664637
     54          1           0        6.423621   -1.859685   -1.685271
     55          1           0        3.324060   -5.303353   -2.031924
     56          1           0        4.878502   -5.101947   -1.259776
     57          1           0        3.463093   -5.450652   -0.296401
     58          1           0        0.996128   -4.469125   -1.063761
     59          1           0       -2.452105   -4.852916   -2.356781
     60          1           0       -0.894247   -5.328445   -1.724311
     61          1           0       -2.304641   -5.367953   -0.693634
     62          1           0       -4.272028   -4.121755    0.615690
     63          1           0       -4.259591   -2.455317    1.140663
     64          1           0       -4.211732   -3.476047   -1.689858
     65          1           0       -4.490775   -1.800340   -1.286290
     66          1           0       -7.596229   -4.326849    0.340264
     67          1           0       -3.528570   -0.086021    0.044119
     68          1           0       -4.495189    1.677274    0.180163
     69          1           0       -4.319768    3.299680    0.760599
     70          1           0       -2.891842    5.162046    0.096901
     71          1           0       -1.341589    5.372925    0.874921
     72          1           0       -1.456359    5.408961   -0.868236
     73          1           0       -4.691030    2.430941   -2.090274
     74          1           0       -4.284407    4.078784   -1.620599
     75          1           0       -7.805832    2.530871   -1.440444
     76          1           0        0.942477    4.458047    0.217368
     77          1           0        6.057443    3.307863   -1.682350
     78          1           0        6.291245    3.424996    0.045274
     79          1           0        6.416828    1.874340   -0.750190
     80          1           0        5.473028    0.091954   -0.750431
     81          1           0        4.735285    6.615044    0.229594
     82          1           0        5.211484    5.096958    0.951893
     83          1           0        5.533419    5.399129   -0.738704
     84          1           0        3.394489    5.430924   -1.217264
     85          1           0        2.950129    5.420830    0.448712
     86          1           0       -1.310842   -1.545823    4.924835
     87          1           0        0.124904   -1.272708    5.882493
     88          1           0       -0.848684    0.081594    5.361861
     89          1           0        2.210813   -1.449724    4.562178
     90          1           0        3.159930   -1.036518    2.255155
     91          1           0       -0.945443   -0.026664    2.249715
 ---------------------------------------------------------------------

 SCF Done:  E(RPBE1PBE) =  -3364.75085353     A.U. after   24 cycles

 The electronic state is 1-A.
 Alpha  occ. eigenvalues -- -256.31628 -30.08020 -25.90885 -25.90518 -25.90484
 Alpha  occ. eigenvalues --  -19.26898 -19.24842 -19.17714 -19.17068 -14.45379
 Alpha  occ. eigenvalues --  -14.39915 -14.36672 -14.36622 -14.36581 -14.36477
 Alpha  occ. eigenvalues --  -10.35516 -10.34417 -10.28640 -10.26665 -10.24291
 Alpha  occ. eigenvalues --  -10.24247 -10.24197 -10.24187 -10.24172 -10.24104
 Alpha  occ. eigenvalues --  -10.24099 -10.23994 -10.23805 -10.23550 -10.23209
 Alpha  occ. eigenvalues --  -10.22300 -10.22142 -10.22030 -10.21884 -10.21872
 Alpha  occ. eigenvalues --  -10.21696 -10.21667 -10.21541 -10.21528 -10.21437
 Alpha  occ. eigenvalues --  -10.21433 -10.21412 -10.21372 -10.21218 -10.21187
 Alpha  occ. eigenvalues --  -10.21155 -10.20979 -10.20906 -10.20673 -10.20525
 Alpha  occ. eigenvalues --  -10.20273 -10.19824 -10.18416  -3.42976  -2.19121
 Alpha  occ. eigenvalues --   -2.18183  -2.18120  -1.16948  -1.15583  -1.06914
 Alpha  occ. eigenvalues --   -1.01716  -1.01709  -0.96648  -0.95929  -0.95568
 Alpha  occ. eigenvalues --   -0.94820  -0.91283  -0.84615  -0.83437  -0.83070
 Alpha  occ. eigenvalues --   -0.82486  -0.81747  -0.81693  -0.80560  -0.79987
 Alpha  occ. eigenvalues --   -0.78818  -0.78226  -0.77816  -0.76781  -0.75070
 Alpha  occ. eigenvalues --   -0.73822  -0.73157  -0.72396  -0.71439  -0.70796
 Alpha  occ. eigenvalues --   -0.69796  -0.68822  -0.68469  -0.65803  -0.65541
 Alpha  occ. eigenvalues --   -0.65239  -0.64574  -0.64167  -0.63569  -0.62655
 Alpha  occ. eigenvalues --   -0.62355  -0.58817  -0.57557  -0.57033  -0.55393
 Alpha  occ. eigenvalues --   -0.54538  -0.54258  -0.53064  -0.52546  -0.51811
 Alpha  occ. eigenvalues --   -0.51601  -0.51136  -0.50605  -0.50505  -0.49892
 Alpha  occ. eigenvalues --   -0.49675  -0.49191  -0.48686  -0.48436  -0.48380
 Alpha  occ. eigenvalues --   -0.48213  -0.47873  -0.47499  -0.46307  -0.45744
 Alpha  occ. eigenvalues --   -0.45101  -0.44783  -0.44644  -0.44414  -0.44210
 Alpha  occ. eigenvalues --   -0.43943  -0.43859  -0.43713  -0.43590  -0.43328
 Alpha  occ. eigenvalues --   -0.43076  -0.42842  -0.42723  -0.42424  -0.42226
 Alpha  occ. eigenvalues --   -0.42077  -0.41062  -0.40979  -0.40666  -0.40619
 Alpha  occ. eigenvalues --   -0.40379  -0.40026  -0.39764  -0.39416  -0.39053
 Alpha  occ. eigenvalues --   -0.38880  -0.38547  -0.38369  -0.37904  -0.37758
 Alpha  occ. eigenvalues --   -0.37254  -0.36876  -0.36683  -0.36461  -0.35881
 Alpha  occ. eigenvalues --   -0.35615  -0.35422  -0.35086  -0.34782  -0.34184
 Alpha  occ. eigenvalues --   -0.33857  -0.33388  -0.32563  -0.32240  -0.32133
 Alpha  occ. eigenvalues --   -0.32049  -0.31934  -0.31639  -0.29917  -0.29144
 Alpha  occ. eigenvalues --   -0.29002  -0.27996  -0.27458  -0.27443  -0.26770
 Alpha  occ. eigenvalues --   -0.25091  -0.24628  -0.24140  -0.23988  -0.22816
 Alpha  occ. eigenvalues --   -0.20671  -0.19670  -0.19267  -0.19131  -0.18385
 Alpha virt. eigenvalues --   -0.06765  -0.06561  -0.01562  -0.00768  -0.00225
 Alpha virt. eigenvalues --    0.00111   0.01960   0.02254   0.02966   0.03651
 Alpha virt. eigenvalues --    0.03809   0.04165   0.04350   0.04679   0.04948

 Mulliken charges:
               1
     1  C   -0.354495
     2  C    0.113366
     3  N   -0.220068
     4  C   -0.152682
     5  C    0.024520
     6  N   -0.047392
     7  Fe   0.046757
     8  C   -0.548000
     9  C   -0.529777
    10  C   -0.530003
    11  C   -0.462287
    12  N   -0.100598
    13  C    0.241154
    14  C    0.022018
    15  C   -0.080725
    16  C    0.330230
    17  C   -0.399628
    18  C   -0.311356
    19  C   -0.162006
    20  C    0.271898
    21  O   -0.329745
    22  O   -0.395313
    23  N   -0.134051
    24  C    0.243078
    25  C   -0.064636
    26  C    0.004436
    27  C    0.208591
    28  C   -0.390360
    29  N   -0.090737
    30  C    0.313299
    31  C   -0.040917
    32  C   -0.083815
    33  C    0.287427
    34  C   -0.405041
    35  C   -0.170676
    36  C   -0.383751
    37  N   -0.124642
    38  C    0.261771
    39  C   -0.087526
    40  C    0.095440
    41  C    0.273545
    42  C   -0.416104
    43  C   -0.492131
    44  C   -0.104060
    45  C    0.256433
    46  O   -0.336971
    47  O   -0.360639
    48  C   -0.256094
    49  C   -0.360369
    50  H    0.119214
    51  H    0.119085
    52  H    0.118387
    53  H    0.113248
    54  H    0.112328
    55  H    0.135515
    56  H    0.118552
    57  H    0.133112
    58  H    0.113656
    59  H    0.136476
    60  H    0.123866
    61  H    0.129536
    62  H    0.115142
    63  H    0.136682
    64  H    0.117430
    65  H    0.150389
    66  H    0.346833
    67  H    0.146475
    68  H    0.135071
    69  H    0.147728
    70  H    0.150152
    71  H    0.131542
    72  H    0.142019
    73  H    0.109991
    74  H    0.128666
    75  H    0.354572
    76  H    0.119518
    77  H    0.144852
    78  H    0.144583
    79  H    0.119915
    80  H    0.096780
    81  H    0.121436
    82  H    0.111569
    83  H    0.122533
    84  H    0.104644
    85  H    0.092677
    86  H    0.148367
    87  H    0.115101
    88  H    0.150840
    89  H    0.230184
    90  H    0.168639
    91  H    0.155326
 Sum of Mulliken charges =  -0.00000

 Dipole moment (field-independent basis, Debye):
    X=              2.2769    Y=             -5.5749    Z=              4.1320  Tot=              7.3032
 Quadrupole moment (field-independent basis, Debye-Ang):
   XX=           -273.8901   YY=           -280.4385   ZZ=           -266.0127
   XY=             30.5361   XZ=             18.9667   YZ=             -9.5775

  Exact polarizability: 801.066   5.222 715.015 -17.293  30.830 345.414
 Approx polarizability:1340.649   0.8601298.239 -41.420  86.711 553.467

 Normal termination of Gaussian 16 at Sun Jan 15 12:38:11 2023.
