 Gaussian 16, Revision A.03,
 Gaussian 16:  ES64L-G16RevA.03 25-Dec-2016

 ----------------------------------------------------------------------
 # PBE1PBE/def2TZVP empiricaldispersion=GD3BJ scf=maxcycle=999 geom=che
 ck pop=nbo guess=read
 ----------------------------------------------------------------------

 ----------
 2oyy_III_D
 ----------
 Structure from the checkpoint file:  "2oyy_III_D.chk"
 Charge =  1 Multiplicity = 2

                         Standard orientation:
 ---------------------------------------------------------------------
 Center     Atomic      Atomic             Coordinates (Angstroms)
 Number     Number       Type             X           Y           Z
 ---------------------------------------------------------------------
      1          6           0        4.234322   -2.734672    5.092978
      2          6           0        3.324331   -2.054154    4.098262
      3          6           0        2.750907   -2.776823    3.051971
      4          6           0        3.020503   -0.684443    4.199126
      5          6           0        1.904437   -2.157646    2.121445
      6          6           0        2.161896   -0.061775    3.278321
      7          6           0        1.612260   -0.805613    2.244641
      8          8           0        0.766830   -0.233178    1.327976
      9          6           0       -2.787468    0.142838   -0.681481
     10          6           0        0.240388    3.840925   -0.311996
     11          6           0        3.985430    0.812123   -0.596773
     12          6           0        0.964460   -2.864424   -1.494712
     13          6           0       -2.307372    1.412287   -0.537497
     14          6           0       -3.113220    2.609248   -0.375730
     15          6           0       -2.271101    3.642892   -0.270642
     16          6           0       -0.918308    3.117160   -0.368513
     17          6           0       -2.635645    5.133296   -0.078560
     18          6           0       -4.661612    2.639101   -0.326109
     19          6           0       -5.156496    2.152237    1.046261
     20          6           0       -6.670238    2.156028    1.111670
     21          8           0       -7.317730    3.125424    0.639950
     22          8           0       -7.246322    1.176881    1.635627
     23          6           0        1.518992    3.339986   -0.373655
     24          6           0        2.716728    4.143085   -0.361170
     25          6           0        3.764623    3.309002   -0.436018
     26          6           0        3.245678    1.959728   -0.506547
     27          6           0        2.734511    5.689203   -0.276090
     28          6           0        5.261501    3.699198   -0.445872
     29          6           0        5.637995    4.013877   -1.709121
     30          6           0        3.484540   -0.447234   -0.842958
     31          6           0        4.273556   -1.648122   -0.953870
     32          6           0        3.447019   -2.670059   -1.206842
     33          6           0        2.102681   -2.138909   -1.264834
     34          6           0        5.807554   -1.683751   -0.795153
     35          6           0        3.808496   -4.155282   -1.379208
     36          6           0        4.968815   -4.260413   -2.071433
     37          6           0       -0.320930   -2.388759   -1.365694
     38          6           0       -1.509866   -3.174613   -1.600087
     39          6           0       -2.654977   -2.235143   -1.355494
     40          6           0       -2.064363   -0.977253   -0.985869
     41          6           0       -1.636904   -4.645731   -2.022627
     42          6           0       -4.149987   -2.595048   -1.455807
     43          6           0       -4.511252   -3.025423   -0.034634
     44          6           0       -5.948604   -3.431373    0.093659
     45          8           0       -6.286068   -4.495709   -0.494563
     46          8           0       -6.720707   -2.700584    0.786256
     47          7           0       -0.974437    1.758859   -0.521787
     48          7           0        1.877447    2.009560   -0.462292
     49          7           0        2.153400   -0.779570   -1.036091
     50          7           0       -0.686008   -1.093298   -1.000501
     51         26           0        0.592548    0.498823   -0.548103
     52          1           0        4.102307   -2.291966    6.058111
     53          1           0        3.993530   -3.776059    5.142305
     54          1           0        5.251878   -2.618156    4.783297
     55          1           0        3.450725   -0.107142    4.990664
     56          1           0        1.933392    0.979190    3.373598
     57          1           0        1.484361   -2.725768    1.317906
     58          1           0        2.960685   -3.821832    2.957903
     59          1           0       -3.839938    0.010090   -0.541535
     60          1           0        0.142202    4.901491   -0.209718
     61          1           0        5.043572    0.900544   -0.464796
     62          1           0        1.083666   -3.883242   -1.799179
     63          1           0       -1.734818   -5.259753   -1.151829
     64          1           0       -2.500839   -4.765461   -2.642451
     65          1           0       -0.763560   -4.936874   -2.567976
     66          1           0       -1.835168    5.634292    0.424570
     67          1           0       -2.795938    5.587289   -1.034121
     68          1           0       -3.528083    5.209618    0.506786
     69          1           0       -5.002208    3.639956   -0.490983
     70          1           0       -5.053024    2.001080   -1.090718
     71          1           0       -4.770625    2.797415    1.807674
     72          1           0       -4.800334    1.157493    1.215179
     73          1           0       -7.247316    1.074981    2.590203
     74          1           0       -6.376409   -2.220694    1.543068
     75          1           0       -4.321278   -2.210508    0.632242
     76          1           0       -3.892191   -3.852454    0.244085
     77          1           0       -4.724066   -1.740577   -1.747716
     78          1           0       -4.297548   -3.402251   -2.142501
     79          1           0        3.925098   -4.608006   -0.416740
     80          1           0        3.027203   -4.652657   -1.915025
     81          1           0        5.723346   -4.682278   -1.440868
     82          1           0        4.820636   -4.892314   -2.922106
     83          1           0        5.278593   -3.289653   -2.397873
     84          1           0        6.060424   -1.616892    0.242385
     85          1           0        6.186426   -2.600532   -1.196240
     86          1           0        6.239847   -0.858545   -1.321515
     87          1           0        3.566225    6.004127    0.318869
     88          1           0        2.824250    6.099555   -1.260193
     89          1           0        1.825346    6.032241    0.171843
     90          1           0        5.414053    4.544104    0.192691
     91          1           0        5.847067    2.875733   -0.093852
     92          1           0        6.706159    4.023195   -1.771076
     93          1           0        5.247607    3.286060   -2.389400
     94          1           0        5.257480    4.980831   -1.964285
     95          1           0        0.600498    0.680083    1.572698
 ---------------------------------------------------------------------

 SCF Done:  E(UPBE1PBE) =  -3445.65440201     A.U. after    1 cycles

 Alpha virt. eigenvalues --    0.73369   0.73656   0.73907   0.73973   0.74221
 Alpha virt. eigenvalues --    0.74642   0.74888   0.74935   0.75368   0.75597
 Alpha virt. eigenvalues --    0.76163   0.76517   0.77099   0.77417   0.77515

  Beta  occ. eigenvalues -- -256.46552 -30.21283 -26.04933 -26.04369 -26.03205
  Beta  occ. eigenvalues --  -19.37820 -19.34413 -19.33846 -19.26562 -19.25147
  Beta  occ. eigenvalues --  -14.51798 -14.51571 -14.51042 -14.50207 -10.43825
  Beta  occ. eigenvalues --  -10.42839 -10.39174 -10.37437 -10.37390 -10.37365
  Beta  occ. eigenvalues --  -10.37209 -10.37090 -10.36906 -10.36858 -10.36855
  Beta  occ. eigenvalues --  -10.35800 -10.35707 -10.35706 -10.35705 -10.34948
  Beta  occ. eigenvalues --  -10.34660 -10.33962 -10.33769 -10.33752 -10.33313
  Beta  occ. eigenvalues --  -10.33150 -10.32872 -10.32800 -10.32748 -10.32737
  Beta  occ. eigenvalues --  -10.32721 -10.32702 -10.32299 -10.32278 -10.32012
  Beta  occ. eigenvalues --  -10.31727 -10.31550 -10.31413 -10.31056 -10.30673
  Beta  occ. eigenvalues --  -10.30524 -10.30232 -10.29203 -10.27595 -10.27090
  Beta  occ. eigenvalues --   -3.53993  -2.30606  -2.29964  -2.26859  -1.24937
  Beta  occ. eigenvalues --   -1.23785  -1.23205  -1.11203  -1.10627  -1.10226
  Beta  occ. eigenvalues --   -1.09651  -1.09473  -1.07708  -0.97989  -0.97167
  Beta  occ. eigenvalues --   -0.95407  -0.95199  -0.94415  -0.94260  -0.93863
  Beta  occ. eigenvalues --   -0.92819  -0.90030  -0.89663  -0.89437  -0.89199
  Beta  occ. eigenvalues --   -0.88970  -0.88137  -0.86999  -0.85424  -0.82981
  Beta  occ. eigenvalues --   -0.82553  -0.82211  -0.80727  -0.80599  -0.79373
  Beta  occ. eigenvalues --   -0.78607  -0.78121  -0.77293  -0.75304  -0.75178
  Beta  occ. eigenvalues --   -0.74885  -0.72974  -0.72749  -0.71998  -0.71747
  Beta  occ. eigenvalues --   -0.71231  -0.67752  -0.67447  -0.67333  -0.67036
  Beta  occ. eigenvalues --   -0.65344  -0.64741  -0.63751  -0.63557  -0.62288
  Beta  occ. eigenvalues --   -0.62121  -0.62003  -0.61406  -0.60917  -0.59800
  Beta  occ. eigenvalues --   -0.59219  -0.59087  -0.58895  -0.58332  -0.58072
  Beta  occ. eigenvalues --   -0.57772  -0.57473  -0.57247  -0.56831  -0.56636
  Beta  occ. eigenvalues --   -0.56240  -0.55861  -0.55386  -0.55359  -0.55037
  Beta  occ. eigenvalues --   -0.55000  -0.54460  -0.54231  -0.54012  -0.53744
  Beta  occ. eigenvalues --   -0.53637  -0.53416  -0.53207  -0.52798  -0.52380
  Beta  occ. eigenvalues --   -0.52300  -0.52253  -0.52096  -0.51902  -0.51792
  Beta  occ. eigenvalues --   -0.51430  -0.51122  -0.50880  -0.50312  -0.49910
  Beta  occ. eigenvalues --   -0.49503  -0.49267  -0.48951  -0.48685  -0.48492
  Beta  occ. eigenvalues --   -0.48433  -0.48285  -0.48050  -0.47735  -0.46879
  Beta  occ. eigenvalues --   -0.46534  -0.46323  -0.46137  -0.45887  -0.45271
  Beta  occ. eigenvalues --   -0.45125  -0.44851  -0.44267  -0.43870  -0.43493
  Beta  occ. eigenvalues --   -0.43288  -0.42871  -0.42791  -0.42293  -0.42228
  Beta  occ. eigenvalues --   -0.41765  -0.41334  -0.41029  -0.39648  -0.37694
  Beta  occ. eigenvalues --   -0.36800  -0.36522  -0.36272  -0.36108  -0.35206
  Beta  occ. eigenvalues --   -0.34774  -0.34299  -0.33922  -0.33324  -0.32066
  Beta  occ. eigenvalues --   -0.30908
  Beta virt. eigenvalues --   -0.20581  -0.19801  -0.13209  -0.12902  -0.11801
  Beta virt. eigenvalues --   -0.10968  -0.10165  -0.09264  -0.08954  -0.08764
  Beta virt. eigenvalues --   -0.07880  -0.07189  -0.07035  -0.05689  -0.05039

 Mulliken charges and spin densities:
               1          2
     1  C   -0.382686   0.000162
     2  C    0.161197  -0.004761
     3  C   -0.216971  -0.001020
     4  C   -0.203872   0.000638
     5  C   -0.170839  -0.000937
     6  C   -0.211872  -0.000585
     7  C    0.299871  -0.003812
     8  O   -0.311723  -0.003054
     9  C   -0.391027  -0.239134
    10  C   -0.422490  -0.239682
    11  C   -0.478719  -0.235032
    12  C   -0.504663  -0.223637
    13  C    0.257263   0.079372
    14  C    0.029091   0.011863
    15  C   -0.094489   0.007136
    16  C    0.280083   0.080291
    17  C   -0.399275  -0.001357
    18  C   -0.371462  -0.001682
    19  C   -0.225192   0.000428
    20  C    0.314718   0.000255
    21  O   -0.324984  -0.000028
    22  O   -0.350033   0.000054
    23  C    0.295016   0.092760
    24  C   -0.085134  -0.003230
    25  C   -0.058083   0.023087
    26  C    0.328401   0.060173
    27  C   -0.385572  -0.000986
    28  C   -0.160270  -0.002726
    29  C   -0.343062   0.000351
    30  C    0.297781   0.083027
    31  C   -0.088708   0.013835
    32  C   -0.096205   0.006661
    33  C    0.230377   0.072669
    34  C   -0.371529  -0.000951
    35  C   -0.060755  -0.001914
    36  C   -0.412017   0.000357
    37  C    0.352907   0.074407
    38  C   -0.120095  -0.011336
    39  C   -0.030746   0.026663
    40  C    0.246440   0.062951
    41  C   -0.389935  -0.000684
    42  C   -0.222621  -0.002961
    43  C   -0.273568   0.001294
    44  C    0.351117   0.000545
    45  O   -0.358104   0.000268
    46  O   -0.305432   0.000085
    47  N   -0.062995  -0.188261
    48  N   -0.038647  -0.177828
    49  N   -0.092903  -0.199962
    50  N   -0.079129  -0.168901
    51  Fe  -0.024117   1.973550
    52  H    0.141424  -0.000127
    53  H    0.139454  -0.000118
    54  H    0.142881  -0.000400
    55  H    0.134330   0.000013
    56  H    0.124138  -0.000108
    57  H    0.142505   0.000113
    58  H    0.126959  -0.000114
    59  H    0.146269   0.010630
    60  H    0.129343   0.010648
    61  H    0.145730   0.010661
    62  H    0.125561   0.010699
    63  H    0.159964  -0.000004
    64  H    0.156910  -0.000126
    65  H    0.138049  -0.000311
    66  H    0.132075  -0.000074
    67  H    0.170655   0.000661
    68  H    0.156215   0.000058
    69  H    0.172987  -0.000064
    70  H    0.155808   0.000140
    71  H    0.148144  -0.000044
    72  H    0.099941   0.000180
    73  H    0.357607  -0.000001
    74  H    0.338548  -0.000015
    75  H    0.097816   0.000029
    76  H    0.146040  -0.000147
    77  H    0.138747   0.000129
    78  H    0.152313   0.000152
    79  H    0.115996   0.000518
    80  H    0.099468   0.000049
    81  H    0.129966  -0.000010
    82  H    0.132227   0.000033
    83  H    0.141451  -0.000126
    84  H    0.156480   0.000870
    85  H    0.160967  -0.000001
    86  H    0.137428   0.000307
    87  H    0.148455   0.000098
    88  H    0.167113   0.000228
    89  H    0.132357  -0.000194
    90  H    0.115654   0.000391
    91  H    0.104074   0.000121
    92  H    0.130988   0.000467
    93  H    0.120889   0.000006
    94  H    0.123098  -0.000128
    95  H    0.338641  -0.003508
 Sum of Mulliken charges =   1.00000   1.00000

 Dipole moment (field-independent basis, Debye):
    X=              9.5836    Y=              2.9619    Z=              5.1073  Tot=             11.2562
 Quadrupole moment (field-independent basis, Debye-Ang):
   XX=           -267.6740   YY=           -248.2289   ZZ=           -271.2026
   XY=            -12.9350   XZ=            -20.0829   YZ=              2.5317

 Summary of Natural Population Analysis:

                                       Natural Population
                Natural  -----------------------------------------------
    Atom  No    Charge         Core      Valence    Rydberg      Total
 -----------------------------------------------------------------------
      C    1   -0.31570      0.99970     2.31021    0.00579     3.31570
      C    2   -0.00866      0.99958     2.00033    0.00875     3.00866
      C    3   -0.09375      0.99957     2.08592    0.00826     3.09375
      C    4   -0.09141      0.99959     2.08362    0.00819     3.09141
      C    5   -0.12481      0.99955     2.11594    0.00931     3.12481
      C    6   -0.13482      0.99955     2.12669    0.00857     3.13482
      C    7    0.12637      0.99934     1.86325    0.01105     2.87363
      O    8   -0.28732      0.99989     3.27706    0.01037     4.28732
      C    9   -0.16573      0.99946     2.15738    0.00889     3.16573
      C   10   -0.17506      0.99947     2.16753    0.00806     3.17506
      C   11   -0.17001      0.99947     2.16232    0.00821     3.17001
      C   12   -0.16095      0.99946     2.15343    0.00807     3.16095
      C   13    0.09171      0.99952     1.89869    0.01007     2.90829
      C   14    0.00142      0.99937     1.98958    0.00963     2.99858
      C   15   -0.00193      0.99938     1.99442    0.00813     3.00193
      C   16    0.10136      0.99954     1.88867    0.01043     2.89864
      C   17   -0.31908      0.99970     2.31574    0.00365     3.31908
      C   18   -0.20925      0.99967     2.20216    0.00742     3.20925
      C   19   -0.25534      0.99963     2.24740    0.00831     3.25534
      C   20    0.38106      0.99976     1.60180    0.01738     2.61894
      O   21   -0.27120      0.99990     3.25986    0.01145     4.27120
      O   22   -0.34112      0.99979     3.32601    0.01532     4.34112
      C   23    0.10643      0.99953     1.88367    0.01038     2.89357
      C   24   -0.00718      0.99938     1.99949    0.00831     3.00718
      C   25    0.01225      0.99939     1.97822    0.01014     2.98775
      C   26    0.09322      0.99953     1.89640    0.01086     2.90678
      C   27   -0.31804      0.99970     2.31467    0.00368     3.31804
      C   28   -0.20761      0.99957     2.19959    0.00845     3.20761
      C   29   -0.29718      0.99961     2.29047    0.00711     3.29718
      C   30    0.10023      0.99952     1.88985    0.01039     2.89977
      C   31   -0.00455      0.99937     1.99681    0.00837     3.00455
      C   32    0.00193      0.99938     1.98894    0.00975     2.99807
      C   33    0.09839      0.99952     1.89139    0.01070     2.90161
      C   34   -0.32472      0.99969     2.32138    0.00365     3.32472
      C   35   -0.21668      0.99957     2.20849    0.00863     3.21668
      C   36   -0.30636      0.99962     2.29809    0.00865     3.30636
      C   37    0.08667      0.99949     1.90335    0.01048     2.91333
      C   38   -0.00037      0.99958     1.99327    0.00752     3.00037
      C   39    0.01984      0.99958     1.97192    0.00867     2.98016
      C   40    0.07340      0.99948     1.91708    0.01004     2.92660
      C   41   -0.32294      0.99968     2.31947    0.00379     3.32294
      C   42   -0.21271      0.99966     2.20577    0.00727     3.21271
      C   43   -0.24817      0.99963     2.23975    0.00879     3.24817
      C   44    0.37808      0.99971     1.60558    0.01662     2.62192
      O   45   -0.28277      0.99990     3.27130    0.01157     4.28277
      O   46   -0.31791      0.99981     3.30318    0.01492     4.31791
      N   47   -0.28296      0.99969     2.76265    0.02063     3.78296
      N   48   -0.28310      0.99968     2.76384    0.01958     3.78310
      N   49   -0.28052      0.99971     2.76080    0.02001     3.78052
      N   50   -0.27715      0.99970     2.75800    0.01945     3.77715
     Fe   51    1.25518      8.99548     2.73749    0.01185    11.74482
      H   52    0.11294      0.00000     0.38656    0.00050     0.38706
      H   53    0.11183      0.00000     0.38767    0.00050     0.38817
      H   54    0.11371      0.00000     0.38573    0.00056     0.38629
      H   55    0.11133      0.00000     0.38806    0.00062     0.38867
      H   56    0.10837      0.00000     0.39095    0.00067     0.39163
      H   57    0.11406      0.00000     0.38490    0.00104     0.38594
      H   58    0.10962      0.00000     0.38968    0.00070     0.39038
      H   59    0.11565      0.00000     0.38282    0.00152     0.38435
      H   60    0.11896      0.00000     0.37963    0.00141     0.38104
      H   61    0.11979      0.00000     0.37853    0.00169     0.38021
      H   62    0.11947      0.00000     0.37892    0.00161     0.38053
      H   63    0.11672      0.00000     0.38251    0.00077     0.38328
      H   64    0.11903      0.00000     0.38022    0.00075     0.38097
      H   65    0.11113      0.00000     0.38825    0.00062     0.38887
      H   66    0.10954      0.00000     0.38988    0.00058     0.39046
      H   67    0.11883      0.00000     0.38048    0.00069     0.38117
      H   68    0.11655      0.00000     0.38281    0.00064     0.38345
      H   69    0.12524      0.00000     0.37403    0.00073     0.37476
      H   70    0.11329      0.00000     0.38596    0.00075     0.38671
      H   71    0.12029      0.00000     0.37908    0.00063     0.37971
      H   72    0.10165      0.00000     0.39754    0.00081     0.39835
      H   73    0.25836      0.00000     0.24051    0.00113     0.24164
      H   74    0.25054      0.00000     0.24830    0.00115     0.24946
      H   75    0.09345      0.00000     0.40571    0.00084     0.40655
      H   76    0.12182      0.00000     0.37753    0.00065     0.37818
      H   77    0.11058      0.00000     0.38864    0.00078     0.38942
      H   78    0.12466      0.00000     0.37450    0.00084     0.37534
      H   79    0.11374      0.00000     0.38549    0.00077     0.38626
      H   80    0.10646      0.00000     0.39288    0.00066     0.39354
      H   81    0.10722      0.00000     0.39219    0.00058     0.39278
      H   82    0.11241      0.00000     0.38702    0.00057     0.38759
      H   83    0.10782      0.00000     0.39147    0.00072     0.39218
      H   84    0.11600      0.00000     0.38329    0.00071     0.38400
      H   85    0.11879      0.00000     0.38039    0.00082     0.38121
      H   86    0.11165      0.00000     0.38770    0.00065     0.38835
      H   87    0.11544      0.00000     0.38373    0.00083     0.38456
      H   88    0.11749      0.00000     0.38180    0.00071     0.38251
      H   89    0.10879      0.00000     0.39062    0.00059     0.39121
      H   90    0.11045      0.00000     0.38860    0.00095     0.38955
      H   91    0.10402      0.00000     0.39526    0.00072     0.39598
      H   92    0.11003      0.00000     0.38942    0.00055     0.38997
      H   93    0.10330      0.00000     0.39597    0.00073     0.39670
      H   94    0.10466      0.00000     0.39468    0.00066     0.39534
      H   95    0.25380      0.00000     0.24418    0.00202     0.24620
 =======================================================================
   * Total *    1.00000     58.97505   131.47301    0.55195   191.00000

 Normal termination of Gaussian 16 at Thu Nov  3 12:13:21 2022.
