 Gaussian 16, Revision A.03,
 Gaussian 16:  ES64L-G16RevA.03 25-Dec-2016

 ----------------------------------------------------------------------
 # PBE1PBE/def2TZVP scf=maxcycle=999 empiricaldispersion=GD3BJ geom=che
 ck pop=nbo
 ----------------------------------------------------------------------

 ---------
 2pcb_II_Q
 ---------
 Structure from the checkpoint file:  "2pcb_II_Q.chk"
 Charge =  0 Multiplicity = 5

                         Standard orientation:
 ---------------------------------------------------------------------
 Center     Atomic      Atomic             Coordinates (Angstroms)
 Number     Number       Type             X           Y           Z
 ---------------------------------------------------------------------
      1          6           0        2.452341   -1.508951    5.369520
      2          6           0        1.806793   -1.007875    4.122895
      3          7           0        0.704636   -0.188654    4.032805
      4          6           0        2.123836   -1.298378    2.817974
      5          6           0        0.399746    0.031241    2.762310
      6          7           0        1.227279   -0.645625    2.009838
      7          6           0       -0.607537    2.654348   -2.488435
      8          6           0        0.648785    1.901651   -2.875449
      9         16           0        0.335794    0.238432   -2.265310
     10          6           0        1.135186   -0.781395   -3.508815
     11         26           0        0.868684   -0.079514   -0.022166
     12          6           0       -2.510265   -0.003373    0.027790
     13          6           0        0.845563   -3.481463   -0.371367
     14          6           0        4.279624   -0.123661   -0.601785
     15          6           0        1.058141    3.117034    0.845639
     16          7           0       -0.564255   -1.475338   -0.113136
     17          6           0       -1.931370   -1.244738   -0.186491
     18          6           0       -2.582521   -2.502183   -0.492953
     19          6           0       -1.646165   -3.443744   -0.645009
     20          6           0       -0.363316   -2.813653   -0.393088
     21          6           0       -1.760681   -4.954837   -0.938149
     22          6           0       -4.122300   -2.701477   -0.592382
     23          6           0       -4.841296   -3.110925    0.707886
     24          6           0       -6.181050   -3.781231    0.578595
     25          8           0       -6.400877   -4.868126    1.189436
     26          8           0       -7.088105   -3.236588   -0.120397
     27          7           0        2.257050   -1.501558   -0.375980
     28          6           0        2.056710   -2.860196   -0.461798
     29          6           0        3.320212   -3.526671   -0.687836
     30          6           0        4.263316   -2.577104   -0.778906
     31          6           0        3.605482   -1.294639   -0.564184
     32          6           0        3.491941   -5.046106   -0.854598
     33          6           0        5.756720   -2.726910   -1.124539
     34          6           0        6.456868   -1.868636   -1.853725
     35          7           0        2.375066    1.243551    0.099480
     36          6           0        3.693675    1.044582   -0.261128
     37          6           0        4.399337    2.307011   -0.206500
     38          6           0        3.526198    3.233287    0.203600
     39          6           0        2.258887    2.580178    0.428294
     40          6           0        5.902712    2.493284   -0.511477
     41          6           0        3.863012    4.713772    0.402796
     42          6           0        3.018343    5.627741    0.822439
     43          7           0       -0.488553    1.298034    0.400025
     44          6           0       -0.221025    2.606682    0.694609
     45          6           0       -1.471150    3.361431    0.712824
     46          6           0       -2.451718    2.478240    0.484763
     47          6           0       -1.860868    1.183139    0.275988
     48          6           0       -1.531896    4.900438    0.968812
     49          6           0       -3.945763    2.767862    0.423066
     50          6           0       -4.602717    3.116155   -0.915825
     51          6           0       -6.042951    3.573207   -0.745409
     52          8           0       -6.870027    2.793619   -0.170248
     53          8           0       -6.355129    4.716616   -1.175589
     54          1           0        1.389270   -0.178207   -4.355282
     55          1           0        2.024244   -1.212854   -3.098548
     56          1           0        0.468314   -1.560728   -3.813484
     57          1           0       -1.174608    2.877827   -3.367860
     58          1           0       -1.195585    2.051337   -1.828529
     59          1           0       -0.339827    3.565553   -1.995548
     60          1           0        0.773643    1.896672   -3.938128
     61          1           0        1.505788    2.325096   -2.394679
     62          1           0        2.109743   -0.934126    6.204447
     63          1           0        2.195939   -2.537490    5.515346
     64          1           0        3.514736   -1.414925    5.283636
     65          1           0        0.205652    0.186673    4.813922
     66          1           0        2.927961   -1.923339    2.489785
     67          1           0       -0.392355    0.658703    2.410506
     68          1           0       -4.043185    3.899014   -1.383752
     69          1           0       -4.585150    2.251823   -1.546319
     70          1           0       -4.451032    1.907230    0.808962
     71          1           0       -4.138139    3.581391    1.090944
     72          1           0       -7.809588    2.873082   -0.350556
     73          1           0       -3.579094    0.035791   -0.003348
     74          1           0       -4.553827   -1.784293   -0.935104
     75          1           0       -4.312205   -3.455255   -1.327674
     76          1           0       -4.194724   -3.774224    1.243498
     77          1           0       -4.973137   -2.229214    1.299582
     78          1           0       -6.892290   -2.446914   -0.629977
     79          1           0       -2.408249    5.304561    0.506654
     80          1           0       -1.566432    5.085722    2.022081
     81          1           0       -0.662636    5.365731    0.553131
     82          1           0       -1.819468   -5.109630   -1.995260
     83          1           0       -0.900186   -5.459454   -0.551096
     84          1           0       -2.641774   -5.342949   -0.471304
     85          1           0        0.831260   -4.547308   -0.278264
     86          1           0        1.123951    4.055478    1.355436
     87          1           0        5.304416   -0.122191   -0.909516
     88          1           0        6.082589    3.503455   -0.814956
     89          1           0        6.474248    2.277641    0.367013
     90          1           0        6.192293    1.827739   -1.297666
     91          1           0        3.585559   -5.282520   -1.893946
     92          1           0        4.371800   -5.364680   -0.335697
     93          1           0        2.637923   -5.548083   -0.450156
     94          1           0        5.997983   -0.969841   -2.209383
     95          1           0        7.480682   -2.074915   -2.086436
     96          1           0        6.267725   -3.588288   -0.747974
     97          1           0        2.325090    6.070136    0.137905
     98          1           0        3.023444    5.929968    1.848856
     99          1           0        4.862232    5.027395    0.183478
 ---------------------------------------------------------------------

 SCF Done:  E(UPBE1PBE) =  -3879.32338615     A.U. after   71 cycles

 Alpha virt. eigenvalues --    1.01163   1.01369   1.01884   1.02306   1.02434
 Alpha virt. eigenvalues --    1.02741   1.02900   1.03183   1.03757   1.04118
 Alpha virt. eigenvalues --    1.04520   1.04723   1.05050   1.05243   1.05321

  Beta  occ. eigenvalues -- -256.32733 -89.00666 -30.07376 -25.91125 -25.90680
  Beta  occ. eigenvalues --  -25.89074 -19.27643 -19.27306 -19.18477 -19.17395
  Beta  occ. eigenvalues --  -14.44247 -14.37812 -14.37303 -14.37295 -14.37196
  Beta  occ. eigenvalues --  -14.36900 -10.36310 -10.35427 -10.26604 -10.25921
  Beta  occ. eigenvalues --  -10.25357 -10.25105 -10.24641 -10.24635 -10.24602
  Beta  occ. eigenvalues --  -10.24578 -10.24185 -10.24165 -10.23969 -10.23845
  Beta  occ. eigenvalues --  -10.23592 -10.23397 -10.23392 -10.23164 -10.23052
  Beta  occ. eigenvalues --  -10.23006 -10.22896 -10.22837 -10.22695 -10.22655
  Beta  occ. eigenvalues --  -10.22564 -10.22514 -10.22508 -10.22467 -10.22244
  Beta  occ. eigenvalues --  -10.21872 -10.21840 -10.21807 -10.21559 -10.21512
  Beta  occ. eigenvalues --  -10.21510 -10.21509 -10.21502 -10.21492 -10.20536
  Beta  occ. eigenvalues --  -10.20361 -10.19152  -7.98667  -5.92346  -5.92008
  Beta  occ. eigenvalues --   -5.91426  -3.39509  -2.16439  -2.15846  -2.11402
  Beta  occ. eigenvalues --   -1.16965  -1.16613  -1.05917  -1.02633  -1.01638
  Beta  occ. eigenvalues --   -0.98351  -0.97474  -0.96866  -0.96024  -0.90227
  Beta  occ. eigenvalues --   -0.84532  -0.84031  -0.83669  -0.83453  -0.82449
  Beta  occ. eigenvalues --   -0.81991  -0.81515  -0.81227  -0.80910  -0.79731
  Beta  occ. eigenvalues --   -0.79087  -0.78131  -0.76876  -0.76156  -0.75995
  Beta  occ. eigenvalues --   -0.74275  -0.73099  -0.72545  -0.72062  -0.71440
  Beta  occ. eigenvalues --   -0.70328  -0.69623  -0.69458  -0.67276  -0.66650
  Beta  occ. eigenvalues --   -0.66105  -0.65849  -0.65618  -0.63789  -0.61815
  Beta  occ. eigenvalues --   -0.61432  -0.60485  -0.60059  -0.58927  -0.58173
  Beta  occ. eigenvalues --   -0.56629  -0.56370  -0.55484  -0.55161  -0.54196
  Beta  occ. eigenvalues --   -0.53423  -0.52514  -0.52438  -0.51759  -0.51454
  Beta  occ. eigenvalues --   -0.50843  -0.50368  -0.50092  -0.49348  -0.49179
  Beta  occ. eigenvalues --   -0.48512  -0.48154  -0.48049  -0.47718  -0.47428
  Beta  occ. eigenvalues --   -0.47009  -0.46383  -0.46163  -0.45792  -0.45498
  Beta  occ. eigenvalues --   -0.45212  -0.44929  -0.44747  -0.44525  -0.44286
  Beta  occ. eigenvalues --   -0.44082  -0.43886  -0.43666  -0.43588  -0.43499
  Beta  occ. eigenvalues --   -0.43371  -0.43199  -0.43121  -0.42986  -0.42402
  Beta  occ. eigenvalues --   -0.42334  -0.41902  -0.41622  -0.41281  -0.41051
  Beta  occ. eigenvalues --   -0.40899  -0.40870  -0.40552  -0.40262  -0.39784
  Beta  occ. eigenvalues --   -0.39662  -0.39466  -0.39179  -0.39047  -0.38794
  Beta  occ. eigenvalues --   -0.38631  -0.38365  -0.37834  -0.37666  -0.37271
  Beta  occ. eigenvalues --   -0.37142  -0.36867  -0.36469  -0.36005  -0.35533
  Beta  occ. eigenvalues --   -0.35395  -0.34463  -0.34278  -0.33389  -0.33251
  Beta  occ. eigenvalues --   -0.32745  -0.32543  -0.31984  -0.31910  -0.31676
  Beta  occ. eigenvalues --   -0.31279  -0.29831  -0.29487  -0.29040  -0.28291
  Beta  occ. eigenvalues --   -0.27672  -0.27277  -0.26247  -0.25358  -0.24613
  Beta  occ. eigenvalues --   -0.24435  -0.23696  -0.23142  -0.20371  -0.19349
  Beta  occ. eigenvalues --   -0.19193  -0.15666
  Beta virt. eigenvalues --   -0.08085  -0.07858  -0.05707  -0.04052  -0.01516
  Beta virt. eigenvalues --   -0.00743  -0.00312   0.00104   0.01003   0.01371
  Beta virt. eigenvalues --    0.02451   0.02982   0.03045   0.03651   0.04073

 Mulliken charges and spin densities:
               1          2
     1  C   -0.365960   0.001117
     2  C    0.125948   0.003870
     3  N   -0.215755   0.000048
     4  C   -0.185007   0.000697
     5  C    0.057084  -0.000247
     6  N   -0.098672   0.043091
     7  C   -0.327531   0.000588
     8  C   -0.156103  -0.002193
     9  S    0.008184   0.061512
    10  C   -0.392668   0.005127
    11  Fe  -0.302757   2.171554
    12  C   -0.461242  -0.007974
    13  C   -0.432201  -0.037739
    14  C   -0.447924   0.071435
    15  C   -0.503006  -0.019234
    16  N    0.030716  -0.038958
    17  C    0.279452  -0.026979
    18  C   -0.005443   0.029908
    19  C   -0.029747  -0.027094
    20  C    0.202213   0.026887
    21  C   -0.394512   0.001499
    22  C   -0.424736  -0.002474
    23  C   -0.220479   0.000898
    24  C    0.298650   0.000171
    25  O   -0.375339   0.000150
    26  O   -0.289128  -0.000005
    27  N    0.042303  -0.001278
    28  C    0.171793   0.021741
    29  C   -0.032171  -0.041060
    30  C    0.054849   0.035264
    31  C    0.209056  -0.073069
    32  C   -0.389357   0.002594
    33  C   -0.241044  -0.007586
    34  C   -0.258496   0.008659
    35  N    0.029377   0.025705
    36  C    0.287882  -0.104997
    37  C   -0.090212   0.278733
    38  C    0.023828  -0.139787
    39  C    0.171517   0.030553
    40  C   -0.382539  -0.017813
    41  C   -0.145789   0.696965
    42  C   -0.335171   0.977813
    43  N   -0.096033  -0.038375
    44  C    0.232276   0.028360
    45  C   -0.062144  -0.033809
    46  C    0.211983   0.034249
    47  C    0.183529  -0.026741
    48  C   -0.420094   0.001622
    49  C   -0.529776  -0.002754
    50  C   -0.106672   0.001115
    51  C    0.260044   0.000189
    52  O   -0.340388  -0.000016
    53  O   -0.371275   0.000129
    54  H    0.135889   0.002211
    55  H    0.150900   0.002264
    56  H    0.144590   0.000833
    57  H    0.113210   0.000163
    58  H    0.139712  -0.000409
    59  H    0.096008   0.000397
    60  H    0.122857   0.001190
    61  H    0.128519   0.002686
    62  H    0.119964   0.000183
    63  H    0.146020   0.000053
    64  H    0.148708  -0.000063
    65  H    0.221410   0.001305
    66  H    0.136381   0.000800
    67  H    0.171659   0.001551
    68  H    0.134077  -0.000002
    69  H    0.116985  -0.000015
    70  H    0.128528   0.000429
    71  H    0.143590   0.000427
    72  H    0.347049   0.000012
    73  H    0.094691   0.000221
    74  H    0.105460   0.000239
    75  H    0.149268   0.000325
    76  H    0.138201  -0.000020
    77  H    0.132922   0.000028
    78  H    0.336029   0.000021
    79  H    0.145396  -0.000286
    80  H    0.139169  -0.001064
    81  H    0.144770  -0.000384
    82  H    0.143333  -0.001043
    83  H    0.125898  -0.000313
    84  H    0.143422  -0.000354
    85  H    0.095448   0.001757
    86  H    0.160971   0.002755
    87  H    0.085162  -0.003423
    88  H    0.128143   0.004843
    89  H    0.145853   0.010517
    90  H    0.125812   0.003514
    91  H    0.144158  -0.001500
    92  H    0.130557  -0.000654
    93  H    0.123762  -0.000267
    94  H    0.122248  -0.000311
    95  H    0.125984  -0.000439
    96  H    0.115844   0.000632
    97  H    0.138559   0.016694
    98  H    0.134862   0.013904
    99  H    0.126713   0.028530
 Sum of Mulliken charges =  -0.00000   4.00000

 Dipole moment (field-independent basis, Debye):
    X=              3.5579    Y=              1.5672    Z=              1.5406  Tot=              4.1819
 Quadrupole moment (field-independent basis, Debye-Ang):
   XX=           -328.1858   YY=           -358.4975   ZZ=           -296.9665
   XY=            -21.9841   XZ=              9.9648   YZ=             16.4048

 Summary of Natural Population Analysis:

                                       Natural Population
                Natural  -----------------------------------------------
    Atom  No    Charge         Core      Valence    Rydberg      Total
 -----------------------------------------------------------------------
      C    1   -0.31935      0.99969     2.31648    0.00319     3.31935
      C    2    0.04852      0.99957     1.94246    0.00945     2.95148
      N    3   -0.23857      0.99968     2.72874    0.01015     3.73857
      C    4   -0.03688      0.99948     2.02788    0.00953     3.03688
      C    5    0.08966      0.99965     1.89900    0.01168     2.91034
      N    6   -0.16045      0.99972     2.63451    0.02623     3.66045
      C    7   -0.31136      0.99972     2.30505    0.00659     3.31136
      C    8   -0.26664      0.99968     2.25730    0.00966     3.26664
      S    9    0.30192      4.99926     2.67894    0.01988     7.69808
      C   10   -0.37413      0.99965     2.36556    0.00892     3.37413
     Fe   11    1.07832      8.99518     2.90017    0.02633    11.92168
      C   12   -0.11615      0.99947     2.10785    0.00883     3.11615
      C   13   -0.14002      0.99945     2.13155    0.00901     3.14002
      C   14   -0.09780      0.99940     2.08930    0.00910     3.09780
      C   15   -0.14358      0.99948     2.13498    0.00911     3.14358
      N   16   -0.19574      0.99969     2.67346    0.02259     3.69574
      C   17    0.05035      0.99953     1.93947    0.01066     2.94965
      C   18   -0.00447      0.99934     1.99533    0.00980     3.00447
      C   19   -0.02805      0.99937     2.02021    0.00846     3.02805
      C   20    0.09458      0.99952     1.89483    0.01107     2.90542
      C   21   -0.31561      0.99970     2.31224    0.00367     3.31561
      C   22   -0.21107      0.99966     2.20468    0.00672     3.21107
      C   23   -0.25949      0.99962     2.25149    0.00838     3.25949
      C   24    0.37800      0.99973     1.60535    0.01693     2.62200
      O   25   -0.29164      0.99990     3.28021    0.01154     4.29164
      O   26   -0.31568      0.99982     3.30088    0.01498     4.31568
      N   27   -0.18330      0.99969     2.65991    0.02370     3.68330
      C   28    0.08535      0.99949     1.90409    0.01107     2.91465
      C   29   -0.02570      0.99938     2.01806    0.00826     3.02570
      C   30   -0.02669      0.99936     2.01708    0.01025     3.02669
      C   31    0.04446      0.99948     1.94472    0.01134     2.95554
      C   32   -0.31513      0.99970     2.31173    0.00370     3.31513
      C   33   -0.09685      0.99956     2.08817    0.00912     3.09685
      C   34   -0.19328      0.99959     2.18545    0.00824     3.19328
      N   35   -0.16722      0.99970     2.64599    0.02154     3.66722
      C   36    0.02761      0.99948     1.96208    0.01083     2.97239
      C   37    0.12426      0.99937     1.86786    0.00851     2.87574
      C   38   -0.09314      0.99929     2.08385    0.01000     3.09314
      C   39    0.10617      0.99951     1.88363    0.01069     2.89383
      C   40   -0.32221      0.99970     2.31917    0.00334     3.32221
      C   41    0.23025      0.99954     1.76181    0.00841     2.76975
      C   42    0.28351      0.99956     1.70896    0.00797     2.71649
      N   43   -0.21819      0.99969     2.69627    0.02223     3.71819
      C   44    0.09597      0.99952     1.89326    0.01124     2.90403
      C   45   -0.02863      0.99936     2.02045    0.00882     3.02863
      C   46   -0.00508      0.99936     1.99620    0.00951     3.00508
      C   47    0.03672      0.99951     1.95263    0.01114     2.96328
      C   48   -0.31879      0.99969     2.31546    0.00364     3.31879
      C   49   -0.20995      0.99965     2.20370    0.00659     3.20995
      C   50   -0.24396      0.99962     2.23598    0.00837     3.24396
      C   51    0.38124      0.99977     1.60117    0.01782     2.61876
      O   52   -0.33122      0.99982     3.31856    0.01284     4.33122
      O   53   -0.30101      0.99990     3.28923    0.01189     4.30101
      H   54    0.11171      0.00000     0.38753    0.00076     0.38829
      H   55    0.11413      0.00000     0.38497    0.00090     0.38587
      H   56    0.11349      0.00000     0.38603    0.00049     0.38651
      H   57    0.10460      0.00000     0.39486    0.00054     0.39540
      H   58    0.11537      0.00000     0.38370    0.00093     0.38463
      H   59    0.10594      0.00000     0.39328    0.00078     0.39406
      H   60    0.10780      0.00000     0.39137    0.00084     0.39220
      H   61    0.11070      0.00000     0.38823    0.00107     0.38930
      H   62    0.10778      0.00000     0.39160    0.00063     0.39222
      H   63    0.11373      0.00000     0.38559    0.00068     0.38627
      H   64    0.11661      0.00000     0.38283    0.00056     0.38339
      H   65    0.20451      0.00000     0.29466    0.00084     0.29549
      H   66    0.11013      0.00000     0.38917    0.00069     0.38987
      H   67    0.11795      0.00000     0.38098    0.00107     0.38205
      H   68    0.11974      0.00000     0.37955    0.00071     0.38026
      H   69    0.11264      0.00000     0.38662    0.00074     0.38736
      H   70    0.10712      0.00000     0.39178    0.00109     0.39288
      H   71    0.10848      0.00000     0.39044    0.00108     0.39152
      H   72    0.25639      0.00000     0.24219    0.00142     0.24361
      H   73    0.10381      0.00000     0.39514    0.00105     0.39619
      H   74    0.09866      0.00000     0.40006    0.00128     0.40134
      H   75    0.10906      0.00000     0.38987    0.00107     0.39094
      H   76    0.12286      0.00000     0.37639    0.00075     0.37714
      H   77    0.11268      0.00000     0.38661    0.00070     0.38732
      H   78    0.24752      0.00000     0.25160    0.00088     0.25248
      H   79    0.11061      0.00000     0.38870    0.00069     0.38939
      H   80    0.10921      0.00000     0.38999    0.00079     0.39079
      H   81    0.11165      0.00000     0.38755    0.00079     0.38835
      H   82    0.11017      0.00000     0.38905    0.00078     0.38983
      H   83    0.10796      0.00000     0.39144    0.00060     0.39204
      H   84    0.11072      0.00000     0.38853    0.00076     0.38928
      H   85    0.10753      0.00000     0.39093    0.00154     0.39247
      H   86    0.11207      0.00000     0.38698    0.00095     0.38793
      H   87    0.11283      0.00000     0.38580    0.00137     0.38717
      H   88    0.11101      0.00000     0.38832    0.00067     0.38899
      H   89    0.11655      0.00000     0.38279    0.00066     0.38345
      H   90    0.10933      0.00000     0.39005    0.00063     0.39067
      H   91    0.11102      0.00000     0.38817    0.00081     0.38898
      H   92    0.10941      0.00000     0.38983    0.00076     0.39059
      H   93    0.10666      0.00000     0.39274    0.00060     0.39334
      H   94    0.09530      0.00000     0.40378    0.00093     0.40470
      H   95    0.10206      0.00000     0.39727    0.00067     0.39794
      H   96    0.10269      0.00000     0.39637    0.00095     0.39731
      H   97    0.10816      0.00000     0.39114    0.00071     0.39184
      H   98    0.10727      0.00000     0.39210    0.00063     0.39273
      H   99    0.12452      0.00000     0.37448    0.00101     0.37548
 =======================================================================
   * Total *    2.00000     64.97326   136.39439    0.63235   202.00000

 Normal termination of Gaussian 16 at Wed Apr  5 16:48:51 2023.
