 Gaussian 16, Revision A.03,
 Gaussian 16:  ES64L-G16RevA.03 25-Dec-2016

 ----------------------------------------------------------------------
 # PBE1PBE/def2TZVP guess=read empiricaldispersion=GD3BJ scf=maxcycle=9
 99 geom=check pop=nbo
 ----------------------------------------------------------------------

 ---------
 2v07_II_Q
 ---------
 Structure from the checkpoint file:  "2v07_II_Qn.chk"
 Charge =  0 Multiplicity = 5

                         Standard orientation:
 ---------------------------------------------------------------------
 Center     Atomic      Atomic             Coordinates (Angstroms)
 Number     Number       Type             X           Y           Z
 ---------------------------------------------------------------------
      1          6           0        2.635877   -1.638983    4.958577
      2          6           0        1.801230   -1.148534    3.811592
      3          7           0        0.450590   -0.932798    3.936438
      4          6           0        2.112573   -0.858916    2.521461
      5          6           0       -0.043074   -0.522250    2.774784
      6          7           0        0.939024   -0.489112    1.891057
      7          6           0       -1.294123    2.199588   -2.802054
      8          6           0       -0.592451    0.900961   -3.199964
      9         16           0        0.908497    0.606370   -2.317779
     10          6           0        1.693958   -0.650623   -3.275358
     11         26           0        0.848699   -0.019251   -0.058183
     12          6           0       -2.571388   -0.385287   -0.086204
     13          6           0        1.199898   -3.342925   -0.711993
     14          6           0        4.239082    0.409714   -0.370972
     15          6           0        0.541183    3.189911    0.910480
     16          7           0       -0.433139   -1.551629   -0.366872
     17          6           0       -1.817670   -1.506003   -0.285426
     18          6           0       -2.336442   -2.851345   -0.445198
     19          6           0       -1.293800   -3.665277   -0.646106
     20          6           0       -0.067681   -2.868655   -0.595232
     21          6           0       -1.326753   -5.184854   -0.865195
     22          6           0       -3.834926   -3.193411   -0.365303
     23          6           0       -4.268974   -3.131499    1.104885
     24          6           0       -5.762668   -3.289014    1.310033
     25          8           0       -6.522952   -3.084826    0.329892
     26          8           0       -6.204957   -3.577914    2.477059
     27          7           0        2.431507   -1.216684   -0.455735
     28          6           0        2.352638   -2.572832   -0.660349
     29          6           0        3.689220   -3.071583   -0.880976
     30          6           0        4.537472   -2.032681   -0.797047
     31          6           0        3.748648   -0.850893   -0.541728
     32          6           0        3.976966   -4.552128   -1.159422
     33          6           0        6.050732   -1.996162   -1.023151
     34          6           0        6.413860   -2.412289   -2.276366
     35          7           0        2.162400    1.511174    0.212943
     36          6           0        3.508630    1.478317    0.042338
     37          6           0        4.039829    2.775043    0.426839
     38          6           0        3.015409    3.559141    0.787093
     39          6           0        1.808123    2.765817    0.647298
     40          6           0        5.514830    3.139536    0.398534
     41          6           0        3.060123    5.004683    1.291858
     42          6           0        3.739480    5.970401    0.646033
     43          7           0       -0.726751    1.175356    0.343093
     44          6           0       -0.602949    2.520540    0.667553
     45          6           0       -1.918589    3.140556    0.717654
     46          6           0       -2.867797    2.038633    0.385826
     47          6           0       -2.071926    0.864436    0.183021
     48          6           0       -2.259970    4.610773    1.002925
     49          6           0       -4.382165    2.206095    0.284659
     50          6           0       -4.694381    2.682751   -1.140094
     51          6           0       -6.183836    2.915351   -1.362904
     52          8           0       -6.609867    3.117686   -2.516585
     53          8           0       -6.961065    2.922068   -0.399338
     54          1           0        2.191130   -2.519866    5.372276
     55          1           0        3.621663   -1.866932    4.610488
     56          1           0        2.689857   -0.879792    5.710651
     57          1           0        3.084370   -0.907845    2.076359
     58          1           0       -0.079529   -1.064784    4.774027
     59          1           0       -1.063612   -0.262105    2.585767
     60          1           0        0.981994   -1.086130   -3.944941
     61          1           0        2.496470   -0.221268   -3.837966
     62          1           0        2.079680   -1.406660   -2.623800
     63          1           0       -2.132699    1.974733   -2.176650
     64          1           0       -0.609621    2.826045   -2.269224
     65          1           0       -1.631158    2.706911   -3.681787
     66          1           0       -1.259613    0.083844   -3.020756
     67          1           0       -0.371474    0.939208   -4.246199
     68          1           0        5.976318    2.830032    1.312939
     69          1           0        5.988321    2.646528   -0.424660
     70          1           0        5.618423    4.198694    0.287395
     71          1           0        5.276656    0.569493   -0.577877
     72          1           0        3.116015   -5.005160   -1.604871
     73          1           0        4.808978   -4.634320   -1.827180
     74          1           0        4.206649   -5.049796   -0.240470
     75          1           0        7.282735   -3.033028   -2.208254
     76          1           0        5.611431   -2.968688   -2.713890
     77          1           0        6.631125   -1.560271   -2.886088
     78          1           0        6.751755   -1.678671   -0.279735
     79          1           0        3.369063    6.928455    0.945735
     80          1           0        4.779150    5.898194    0.888463
     81          1           0        3.610355    5.852351   -0.409567
     82          1           0        2.533122    5.255248    2.188734
     83          1           0        0.443750    4.157143    1.357547
     84          1           0       -3.097948    4.660090    1.666447
     85          1           0       -1.417816    5.091117    1.455636
     86          1           0       -2.501949    5.105253    0.085409
     87          1           0       -4.351927    1.944375   -1.834665
     88          1           0       -4.170501    3.597983   -1.321202
     89          1           0       -4.865278    1.269406    0.469366
     90          1           0       -4.716184    2.934468    0.993746
     91          1           0       -7.875426    2.654881   -0.518317
     92          1           0       -3.634720   -0.489335   -0.144511
     93          1           0        1.318960   -4.396549   -0.855522
     94          1           0       -2.277197   -5.466620   -1.267891
     95          1           0       -0.552729   -5.463424   -1.549435
     96          1           0       -1.173294   -5.683322    0.069086
     97          1           0       -4.000532   -4.178552   -0.748671
     98          1           0       -4.397172   -2.485007   -0.937091
     99          1           0       -3.767493   -3.909808    1.641217
    100          1           0       -3.967094   -2.188194    1.509787
    101          1           0       -7.459011   -3.286602    0.398294
 ---------------------------------------------------------------------

 SCF Done:  E(UPBE1PBE) =  -3880.55027773     A.U. after   77 cycles

 Alpha virt. eigenvalues --    1.04158   1.04566   1.04638   1.05200   1.05387
 Alpha virt. eigenvalues --    1.05559   1.05783   1.06260   1.06388   1.06625
 Alpha virt. eigenvalues --    1.06845   1.06953   1.07056   1.07426   1.07573

  Beta  occ. eigenvalues -- -256.30061 -88.99229 -30.04735 -25.88602 -25.87811
  Beta  occ. eigenvalues --  -25.86505 -19.27765 -19.26539 -19.17563 -19.16766
  Beta  occ. eigenvalues --  -14.44384 -14.37357 -14.36606 -14.36387 -14.36009
  Beta  occ. eigenvalues --  -14.35654 -10.35887 -10.34692 -10.27638 -10.25781
  Beta  occ. eigenvalues --  -10.24265 -10.24141 -10.23976 -10.23920 -10.23800
  Beta  occ. eigenvalues --  -10.23615 -10.23512 -10.23503 -10.23408 -10.23209
  Beta  occ. eigenvalues --  -10.23084 -10.23068 -10.22891 -10.22879 -10.22599
  Beta  occ. eigenvalues --  -10.22572 -10.22207 -10.22032 -10.21771 -10.21684
  Beta  occ. eigenvalues --  -10.21677 -10.21492 -10.21441 -10.21409 -10.21283
  Beta  occ. eigenvalues --  -10.21237 -10.21064 -10.21041 -10.21011 -10.20874
  Beta  occ. eigenvalues --  -10.20763 -10.20697 -10.20654 -10.20494 -10.19601
  Beta  occ. eigenvalues --  -10.19521 -10.19019  -7.97316  -5.90989  -5.90653
  Beta  occ. eigenvalues --   -5.90082  -3.37234  -2.15315  -2.12301  -2.09427
  Beta  occ. eigenvalues --   -1.17780  -1.17483  -1.05969  -1.01764  -1.00969
  Beta  occ. eigenvalues --   -0.97422  -0.96228  -0.95927  -0.94559  -0.90229
  Beta  occ. eigenvalues --   -0.84169  -0.83571  -0.83044  -0.82865  -0.82374
  Beta  occ. eigenvalues --   -0.82177  -0.81099  -0.80996  -0.80656  -0.79040
  Beta  occ. eigenvalues --   -0.78288  -0.77692  -0.77551  -0.75658  -0.75554
  Beta  occ. eigenvalues --   -0.74259  -0.72834  -0.72433  -0.72081  -0.71270
  Beta  occ. eigenvalues --   -0.69907  -0.69286  -0.68907  -0.66376  -0.65920
  Beta  occ. eigenvalues --   -0.65791  -0.65175  -0.64627  -0.64277  -0.61950
  Beta  occ. eigenvalues --   -0.60683  -0.60099  -0.59018  -0.58868  -0.57653
  Beta  occ. eigenvalues --   -0.56288  -0.55744  -0.54587  -0.54165  -0.53255
  Beta  occ. eigenvalues --   -0.52394  -0.52271  -0.51795  -0.51629  -0.51112
  Beta  occ. eigenvalues --   -0.50659  -0.50440  -0.49452  -0.49439  -0.48714
  Beta  occ. eigenvalues --   -0.48664  -0.47831  -0.47736  -0.47304  -0.47058
  Beta  occ. eigenvalues --   -0.46181  -0.46137  -0.45736  -0.45425  -0.45169
  Beta  occ. eigenvalues --   -0.45040  -0.44512  -0.44170  -0.44082  -0.43981
  Beta  occ. eigenvalues --   -0.43721  -0.43514  -0.43388  -0.43292  -0.43139
  Beta  occ. eigenvalues --   -0.42958  -0.42882  -0.42805  -0.42571  -0.42343
  Beta  occ. eigenvalues --   -0.42110  -0.42004  -0.41758  -0.40997  -0.40706
  Beta  occ. eigenvalues --   -0.40521  -0.40383  -0.39977  -0.39817  -0.39641
  Beta  occ. eigenvalues --   -0.39529  -0.39389  -0.39060  -0.38532  -0.38516
  Beta  occ. eigenvalues --   -0.38288  -0.38017  -0.37599  -0.37476  -0.37107
  Beta  occ. eigenvalues --   -0.36932  -0.36447  -0.36294  -0.36113  -0.35709
  Beta  occ. eigenvalues --   -0.35108  -0.34664  -0.34262  -0.33699  -0.33321
  Beta  occ. eigenvalues --   -0.32941  -0.32066  -0.31883  -0.31854  -0.31549
  Beta  occ. eigenvalues --   -0.31016  -0.30539  -0.29770  -0.28730  -0.28259
  Beta  occ. eigenvalues --   -0.27946  -0.27509  -0.27063  -0.24723  -0.24654
  Beta  occ. eigenvalues --   -0.24059  -0.23626  -0.22263  -0.21756  -0.18906
  Beta  occ. eigenvalues --   -0.18672  -0.18251  -0.15004
  Beta virt. eigenvalues --   -0.07894  -0.06368  -0.03810  -0.03164  -0.00109
  Beta virt. eigenvalues --    0.00350   0.00666   0.00811   0.01808   0.02627
  Beta virt. eigenvalues --    0.03240   0.03360   0.04074   0.04730   0.04791

 Mulliken charges and spin densities:
               1          2
     1  C   -0.390671   0.001273
     2  C    0.166906  -0.000511
     3  N   -0.215708   0.003696
     4  C   -0.200823   0.004394
     5  C    0.020673   0.014335
     6  N    0.019585   0.028953
     7  C   -0.299436   0.000213
     8  C   -0.190060   0.002591
     9  S    0.001738   0.055760
    10  C   -0.333206  -0.000586
    11  Fe  -0.271101   2.038984
    12  C   -0.666395  -0.035353
    13  C   -0.532593   0.027541
    14  C   -0.466876   0.007604
    15  C   -0.512693   0.011879
    16  N    0.025968  -0.013355
    17  C    0.276225   0.023443
    18  C    0.024172  -0.013672
    19  C   -0.084190   0.020522
    20  C    0.264548  -0.024676
    21  C   -0.410759  -0.001201
    22  C   -0.294556   0.001359
    23  C   -0.187139  -0.000495
    24  C    0.266076  -0.000051
    25  O   -0.320875   0.000008
    26  O   -0.406926  -0.000040
    27  N   -0.053544  -0.006485
    28  C    0.282091  -0.044452
    29  C   -0.092270   0.101915
    30  C    0.072934  -0.150857
    31  C    0.098259   0.017546
    32  C   -0.365424  -0.004898
    33  C   -0.256249   0.983290
    34  C   -0.315399  -0.069489
    35  N    0.017789   0.007150
    36  C    0.294917  -0.014703
    37  C   -0.049795   0.123537
    38  C   -0.003435  -0.146422
    39  C    0.241550   0.003448
    40  C   -0.385409  -0.006472
    41  C   -0.272195   0.961542
    42  C   -0.315058  -0.076981
    43  N    0.016734  -0.028306
    44  C    0.308401  -0.016190
    45  C   -0.073360   0.039441
    46  C    0.044107  -0.043484
    47  C    0.172924   0.028233
    48  C   -0.397377  -0.003063
    49  C   -0.276212   0.003469
    50  C   -0.197048  -0.001790
    51  C    0.253239  -0.000364
    52  O   -0.377861  -0.000121
    53  O   -0.320122   0.000022
    54  H    0.133073  -0.000008
    55  H    0.144280  -0.000008
    56  H    0.139110  -0.000044
    57  H    0.143224   0.001230
    58  H    0.226793   0.003310
    59  H    0.164885   0.000829
    60  H    0.136451   0.000331
    61  H    0.132891   0.001191
    62  H    0.143690   0.002131
    63  H    0.061522  -0.000030
    64  H    0.130808  -0.000068
    65  H    0.124722  -0.000093
    66  H    0.120123   0.001635
    67  H    0.130595   0.003728
    68  H    0.140023   0.004875
    69  H    0.127210   0.001975
    70  H    0.113740   0.001959
    71  H    0.112083   0.002809
    72  H    0.123820   0.000570
    73  H    0.123823   0.001358
    74  H    0.141212   0.003898
    75  H    0.114187   0.031652
    76  H    0.129018   0.007103
    77  H    0.128046   0.076219
    78  H    0.133901  -0.050174
    79  H    0.118821   0.009760
    80  H    0.124197   0.086394
    81  H    0.134563   0.039103
    82  H    0.122040  -0.049230
    83  H    0.086224   0.006123
    84  H    0.133029   0.000945
    85  H    0.128293   0.000331
    86  H    0.140050   0.001640
    87  H    0.143974   0.000251
    88  H    0.139394   0.000034
    89  H    0.109115  -0.000578
    90  H    0.119921  -0.000533
    91  H    0.348110  -0.000052
    92  H    0.114558   0.001449
    93  H    0.108907  -0.001386
    94  H    0.128249   0.000248
    95  H    0.130298   0.000396
    96  H    0.142612   0.000859
    97  H    0.113613   0.000051
    98  H    0.131481  -0.000375
    99  H    0.139679   0.000030
   100  H    0.146274   0.000046
   101  H    0.343294  -0.000017
 Sum of Mulliken charges =  -0.00000   4.00000

 Dipole moment (field-independent basis, Debye):
    X=              1.3332    Y=             -1.8224    Z=              3.4256  Tot=              4.1028
 Quadrupole moment (field-independent basis, Debye-Ang):
   XX=           -303.9150   YY=           -316.1250   ZZ=           -318.8396
   XY=              3.0695   XZ=              1.0492   YZ=             19.2017

 Summary of Natural Population Analysis:

                                       Natural Population
                Natural  -----------------------------------------------
    Atom  No    Charge         Core      Valence    Rydberg      Total
 -----------------------------------------------------------------------
      C    1   -0.31879      0.99970     2.31602    0.00307     3.31879
      C    2    0.04922      0.99955     1.94180    0.00943     2.95078
      N    3   -0.23952      0.99968     2.72976    0.01008     3.73952
      C    4   -0.03005      0.99944     2.02107    0.00954     3.03005
      C    5    0.10589      0.99966     1.88315    0.01130     2.89411
      N    6   -0.15991      0.99971     2.63650    0.02369     3.65991
      C    7   -0.30694      0.99972     2.30126    0.00596     3.30694
      C    8   -0.27452      0.99967     2.26489    0.00996     3.27452
      S    9    0.30608      4.99927     2.67454    0.02012     7.69392
      C   10   -0.38336      0.99965     2.37439    0.00932     3.38336
     Fe   11    1.00335      8.99536     2.97588    0.02541    11.99665
      C   12   -0.14872      0.99944     2.14009    0.00919     3.14872
      C   13   -0.11359      0.99945     2.10539    0.00875     3.11359
      C   14   -0.12409      0.99944     2.11591    0.00875     3.12409
      C   15   -0.10722      0.99943     2.09901    0.00879     3.10722
      N   16   -0.19278      0.99971     2.67334    0.01972     3.69278
      C   17    0.08758      0.99950     1.90249    0.01042     2.91242
      C   18   -0.02920      0.99937     2.02016    0.00967     3.02920
      C   19    0.00237      0.99939     1.98965    0.00859     2.99763
      C   20    0.06255      0.99951     1.92735    0.01059     2.93745
      C   21   -0.31911      0.99970     2.31589    0.00352     3.31911
      C   22   -0.21165      0.99968     2.20499    0.00698     3.21165
      C   23   -0.24892      0.99962     2.24066    0.00863     3.24892
      C   24    0.38077      0.99977     1.60184    0.01762     2.61923
      O   25   -0.32248      0.99981     3.30957    0.01310     4.32248
      O   26   -0.31419      0.99991     3.30309    0.01120     4.31419
      N   27   -0.19539      0.99969     2.67178    0.02393     3.69539
      C   28    0.04508      0.99952     1.94372    0.01167     2.95492
      C   29    0.03557      0.99938     1.95632    0.00873     2.96443
      C   30   -0.10181      0.99939     2.09225    0.01018     3.10181
      C   31    0.08501      0.99950     1.90476    0.01073     2.91499
      C   32   -0.31965      0.99970     2.31632    0.00363     3.31965
      C   33    0.39545      0.99961     1.59719    0.00775     2.60455
      C   34   -0.36294      0.99965     2.35577    0.00751     3.36294
      N   35   -0.17837      0.99969     2.65828    0.02040     3.67837
      C   36    0.07372      0.99952     1.91616    0.01060     2.92628
      C   37    0.04199      0.99940     1.95014    0.00848     2.95801
      C   38   -0.09097      0.99938     2.08146    0.01013     3.09097
      C   39    0.08775      0.99951     1.90242    0.01032     2.91225
      C   40   -0.31993      0.99970     2.31661    0.00361     3.31993
      C   41    0.38856      0.99958     1.60374    0.00813     2.61144
      C   42   -0.36811      0.99962     2.36037    0.00812     3.36811
      N   43   -0.20794      0.99970     2.68414    0.02410     3.70794
      C   44    0.04756      0.99945     1.94177    0.01123     2.95244
      C   45    0.01775      0.99958     1.97429    0.00838     2.98225
      C   46   -0.03912      0.99955     2.03066    0.00890     3.03912
      C   47    0.07071      0.99946     1.91827    0.01156     2.92929
      C   48   -0.32302      0.99968     2.31966    0.00367     3.32302
      C   49   -0.21518      0.99967     2.20877    0.00674     3.21518
      C   50   -0.24608      0.99963     2.23825    0.00819     3.24608
      C   51    0.38105      0.99978     1.60030    0.01887     2.61895
      O   52   -0.30872      0.99989     3.29653    0.01229     4.30872
      O   53   -0.32619      0.99980     3.31257    0.01382     4.32619
      H   54    0.10868      0.00000     0.39058    0.00073     0.39132
      H   55    0.11707      0.00000     0.38247    0.00046     0.38293
      H   56    0.10943      0.00000     0.38983    0.00074     0.39057
      H   57    0.11621      0.00000     0.38291    0.00087     0.38379
      H   58    0.20629      0.00000     0.29292    0.00079     0.29371
      H   59    0.11255      0.00000     0.38656    0.00089     0.38745
      H   60    0.11125      0.00000     0.38803    0.00072     0.38875
      H   61    0.11013      0.00000     0.38931    0.00056     0.38987
      H   62    0.12395      0.00000     0.37528    0.00077     0.37605
      H   63    0.10819      0.00000     0.39081    0.00100     0.39181
      H   64    0.11087      0.00000     0.38819    0.00095     0.38913
      H   65    0.10601      0.00000     0.39345    0.00054     0.39399
      H   66    0.10635      0.00000     0.39246    0.00119     0.39365
      H   67    0.10855      0.00000     0.39068    0.00077     0.39145
      H   68    0.11145      0.00000     0.38777    0.00078     0.38855
      H   69    0.10865      0.00000     0.39070    0.00065     0.39135
      H   70    0.10885      0.00000     0.39035    0.00080     0.39115
      H   71    0.11110      0.00000     0.38770    0.00120     0.38890
      H   72    0.10765      0.00000     0.39168    0.00067     0.39235
      H   73    0.10938      0.00000     0.38982    0.00079     0.39062
      H   74    0.11287      0.00000     0.38638    0.00076     0.38713
      H   75    0.12377      0.00000     0.37559    0.00064     0.37623
      H   76    0.11473      0.00000     0.38458    0.00070     0.38527
      H   77    0.14924      0.00000     0.35025    0.00051     0.35076
      H   78    0.08082      0.00000     0.41836    0.00082     0.41918
      H   79    0.11663      0.00000     0.38281    0.00056     0.38337
      H   80    0.14952      0.00000     0.34982    0.00066     0.35048
      H   81    0.13081      0.00000     0.36855    0.00063     0.36919
      H   82    0.07708      0.00000     0.42212    0.00079     0.42292
      H   83    0.10803      0.00000     0.39054    0.00143     0.39197
      H   84    0.11011      0.00000     0.38912    0.00077     0.38989
      H   85    0.10953      0.00000     0.38983    0.00064     0.39047
      H   86    0.11141      0.00000     0.38771    0.00087     0.38859
      H   87    0.12116      0.00000     0.37815    0.00068     0.37884
      H   88    0.12043      0.00000     0.37884    0.00073     0.37957
      H   89    0.10453      0.00000     0.39441    0.00106     0.39547
      H   90    0.10976      0.00000     0.38900    0.00123     0.39024
      H   91    0.25696      0.00000     0.24146    0.00158     0.24304
      H   92    0.10665      0.00000     0.39213    0.00121     0.39335
      H   93    0.10805      0.00000     0.39057    0.00138     0.39195
      H   94    0.10796      0.00000     0.39124    0.00079     0.39204
      H   95    0.10922      0.00000     0.39008    0.00070     0.39078
      H   96    0.11026      0.00000     0.38898    0.00076     0.38974
      H   97    0.10842      0.00000     0.39081    0.00078     0.39158
      H   98    0.11024      0.00000     0.38892    0.00084     0.38976
      H   99    0.12157      0.00000     0.37777    0.00066     0.37843
      H  100    0.12188      0.00000     0.37747    0.00065     0.37812
      H  101    0.25616      0.00000     0.24227    0.00157     0.24384
 =======================================================================
   * Total *    2.00000     64.97416   137.40054    0.62530   203.00000

 Normal termination of Gaussian 16 at Sun Feb 26 18:54:40 2023.
