 Gaussian 16, Revision A.03,
 Gaussian 16:  ES64L-G16RevA.03 25-Dec-2016

 ---------------------------------------------------------------------
 # polar def2tzvp empiricaldispersion=gd3bj int=grid=ultrafine pbe1pbe
 ---------------------------------------------------------------------

 ---------
 2v07_II_S
 ---------
 Symbolic Z-matrix:
 Charge =  0 Multiplicity = 1

                         Standard orientation:
 ---------------------------------------------------------------------
 Center     Atomic      Atomic             Coordinates (Angstroms)
 Number     Number       Type             X           Y           Z
 ---------------------------------------------------------------------
      1          6           0        2.635877   -1.638983    4.958577
      2          6           0        1.801230   -1.148534    3.811592
      3          7           0        0.450590   -0.932798    3.936438
      4          6           0        2.112573   -0.858916    2.521461
      5          6           0       -0.043074   -0.522250    2.774784
      6          7           0        0.939024   -0.489112    1.891057
      7          6           0       -1.294123    2.199588   -2.802054
      8          6           0       -0.592451    0.900961   -3.199964
      9         16           0        0.908497    0.606370   -2.317779
     10          6           0        1.693958   -0.650623   -3.275358
     11         26           0        0.848699   -0.019251   -0.058183
     12          6           0       -2.571388   -0.385287   -0.086204
     13          6           0        1.199898   -3.342925   -0.711993
     14          6           0        4.239082    0.409714   -0.370972
     15          6           0        0.541183    3.189911    0.910480
     16          7           0       -0.433139   -1.551629   -0.366872
     17          6           0       -1.817670   -1.506003   -0.285426
     18          6           0       -2.336442   -2.851345   -0.445198
     19          6           0       -1.293800   -3.665277   -0.646106
     20          6           0       -0.067681   -2.868655   -0.595232
     21          6           0       -1.326753   -5.184854   -0.865195
     22          6           0       -3.834926   -3.193411   -0.365303
     23          6           0       -4.268974   -3.131499    1.104885
     24          6           0       -5.762668   -3.289014    1.310033
     25          8           0       -6.522952   -3.084826    0.329892
     26          8           0       -6.204957   -3.577914    2.477059
     27          7           0        2.431507   -1.216684   -0.455735
     28          6           0        2.352638   -2.572832   -0.660349
     29          6           0        3.689220   -3.071583   -0.880976
     30          6           0        4.537472   -2.032681   -0.797047
     31          6           0        3.748648   -0.850893   -0.541728
     32          6           0        3.976966   -4.552128   -1.159422
     33          6           0        6.050732   -1.996162   -1.023151
     34          6           0        6.413860   -2.412289   -2.276366
     35          7           0        2.162400    1.511174    0.212943
     36          6           0        3.508630    1.478317    0.042338
     37          6           0        4.039829    2.775043    0.426839
     38          6           0        3.015409    3.559141    0.787093
     39          6           0        1.808123    2.765817    0.647298
     40          6           0        5.514830    3.139536    0.398534
     41          6           0        3.060123    5.004683    1.291858
     42          6           0        3.739480    5.970401    0.646033
     43          7           0       -0.726751    1.175356    0.343093
     44          6           0       -0.602949    2.520540    0.667553
     45          6           0       -1.918589    3.140556    0.717654
     46          6           0       -2.867797    2.038633    0.385826
     47          6           0       -2.071926    0.864436    0.183021
     48          6           0       -2.259970    4.610773    1.002925
     49          6           0       -4.382165    2.206095    0.284659
     50          6           0       -4.694381    2.682751   -1.140094
     51          6           0       -6.183836    2.915351   -1.362904
     52          8           0       -6.609867    3.117686   -2.516585
     53          8           0       -6.961065    2.922068   -0.399338
     54          1           0        2.191130   -2.519866    5.372276
     55          1           0        3.621663   -1.866932    4.610488
     56          1           0        2.689857   -0.879792    5.710651
     57          1           0        3.084370   -0.907845    2.076359
     58          1           0       -0.079529   -1.064784    4.774027
     59          1           0       -1.063612   -0.262105    2.585767
     60          1           0        0.981994   -1.086130   -3.944941
     61          1           0        2.496470   -0.221268   -3.837966
     62          1           0        2.079680   -1.406660   -2.623800
     63          1           0       -2.132699    1.974733   -2.176650
     64          1           0       -0.609621    2.826045   -2.269224
     65          1           0       -1.631158    2.706911   -3.681787
     66          1           0       -1.259613    0.083844   -3.020756
     67          1           0       -0.371474    0.939208   -4.246199
     68          1           0        5.976318    2.830032    1.312939
     69          1           0        5.988321    2.646528   -0.424660
     70          1           0        5.618423    4.198694    0.287395
     71          1           0        5.276656    0.569493   -0.577877
     72          1           0        3.116015   -5.005160   -1.604871
     73          1           0        4.808978   -4.634320   -1.827180
     74          1           0        4.206649   -5.049796   -0.240470
     75          1           0        7.282735   -3.033028   -2.208254
     76          1           0        5.611431   -2.968688   -2.713890
     77          1           0        6.631125   -1.560271   -2.886088
     78          1           0        6.751755   -1.678671   -0.279735
     79          1           0        3.369063    6.928455    0.945735
     80          1           0        4.779150    5.898194    0.888463
     81          1           0        3.610355    5.852351   -0.409567
     82          1           0        2.533122    5.255248    2.188734
     83          1           0        0.443750    4.157143    1.357547
     84          1           0       -3.097948    4.660090    1.666447
     85          1           0       -1.417816    5.091117    1.455636
     86          1           0       -2.501949    5.105253    0.085409
     87          1           0       -4.351927    1.944375   -1.834665
     88          1           0       -4.170501    3.597983   -1.321202
     89          1           0       -4.865278    1.269406    0.469366
     90          1           0       -4.716184    2.934468    0.993746
     91          1           0       -7.875426    2.654881   -0.518317
     92          1           0       -3.634720   -0.489335   -0.144511
     93          1           0        1.318960   -4.396549   -0.855522
     94          1           0       -2.277197   -5.466620   -1.267891
     95          1           0       -0.552729   -5.463424   -1.549435
     96          1           0       -1.173294   -5.683322    0.069086
     97          1           0       -4.000532   -4.178552   -0.748671
     98          1           0       -4.397172   -2.485007   -0.937091
     99          1           0       -3.767493   -3.909808    1.641217
    100          1           0       -3.967094   -2.188194    1.509787
    101          1           0       -7.459011   -3.286602    0.398294
 ---------------------------------------------------------------------

 SCF Done:  E(RPBE1PBE) =  -3880.51637841     A.U. after   34 cycles

 The electronic state is 1-A.
 Alpha  occ. eigenvalues -- -256.30719 -89.00855 -30.07607 -25.90419 -25.90142
 Alpha  occ. eigenvalues --  -25.89954 -19.27782 -19.26600 -19.17576 -19.16837
 Alpha  occ. eigenvalues --  -14.44522 -14.38980 -14.36687 -14.36626 -14.36088
 Alpha  occ. eigenvalues --  -14.35843 -10.35902 -10.34765 -10.27820 -10.25959
 Alpha  occ. eigenvalues --  -10.24179 -10.24143 -10.23990 -10.23764 -10.23761
 Alpha  occ. eigenvalues --  -10.23655 -10.23514 -10.23501 -10.23328 -10.23288
 Alpha  occ. eigenvalues --  -10.23171 -10.23168 -10.22982 -10.22918 -10.22896
 Alpha  occ. eigenvalues --  -10.22658 -10.22633 -10.22525 -10.22269 -10.21995
 Alpha  occ. eigenvalues --  -10.21677 -10.21563 -10.21468 -10.21458 -10.21374
 Alpha  occ. eigenvalues --  -10.21274 -10.21270 -10.21258 -10.21043 -10.20611
 Alpha  occ. eigenvalues --  -10.20562 -10.20496 -10.20156 -10.20025 -10.19875
 Alpha  occ. eigenvalues --  -10.19718 -10.19412  -7.98798  -5.92462  -5.92146
 Alpha  occ. eigenvalues --   -5.91615  -3.42046  -2.18028  -2.17439  -2.17153
 Alpha  occ. eigenvalues --   -1.17843  -1.17500  -1.06297  -1.01834  -1.00982
 Alpha  occ. eigenvalues --   -0.97291  -0.96307  -0.95868  -0.94490  -0.90704
 Alpha  occ. eigenvalues --   -0.84155  -0.83724  -0.83540  -0.83287  -0.82972
 Alpha  occ. eigenvalues --   -0.82711  -0.81243  -0.80845  -0.80598  -0.79041
 Alpha  occ. eigenvalues --   -0.78430  -0.77783  -0.77557  -0.76122  -0.75503
 Alpha  occ. eigenvalues --   -0.74238  -0.72841  -0.72619  -0.71947  -0.71043
 Alpha  occ. eigenvalues --   -0.69906  -0.69238  -0.68781  -0.66548  -0.66263
 Alpha  occ. eigenvalues --   -0.65725  -0.65173  -0.64621  -0.64544  -0.62138
 Alpha  occ. eigenvalues --   -0.61524  -0.61061  -0.59543  -0.58909  -0.57532
 Alpha  occ. eigenvalues --   -0.56493  -0.55806  -0.54654  -0.54433  -0.53310
 Alpha  occ. eigenvalues --   -0.52408  -0.52272  -0.51835  -0.51619  -0.51110
 Alpha  occ. eigenvalues --   -0.50682  -0.50461  -0.49470  -0.49465  -0.48775
 Alpha  occ. eigenvalues --   -0.48684  -0.48038  -0.47934  -0.47513  -0.47280
 Alpha  occ. eigenvalues --   -0.46325  -0.46175  -0.45849  -0.45752  -0.45515
 Alpha  occ. eigenvalues --   -0.45008  -0.44818  -0.44663  -0.44265  -0.44146
 Alpha  occ. eigenvalues --   -0.43962  -0.43847  -0.43485  -0.43407  -0.43339
 Alpha  occ. eigenvalues --   -0.43156  -0.43043  -0.42822  -0.42562  -0.42418
 Alpha  occ. eigenvalues --   -0.42290  -0.42237  -0.41764  -0.41032  -0.40741
 Alpha  occ. eigenvalues --   -0.40476  -0.40432  -0.40058  -0.39844  -0.39680
 Alpha  occ. eigenvalues --   -0.39449  -0.39370  -0.39111  -0.38580  -0.38527
 Alpha  occ. eigenvalues --   -0.38280  -0.38096  -0.37681  -0.37521  -0.37149
 Alpha  occ. eigenvalues --   -0.37015  -0.36684  -0.36387  -0.36171  -0.35926
 Alpha  occ. eigenvalues --   -0.35198  -0.34960  -0.34401  -0.33757  -0.33396
 Alpha  occ. eigenvalues --   -0.33138  -0.32481  -0.32106  -0.31936  -0.31836
 Alpha  occ. eigenvalues --   -0.31629  -0.30620  -0.29604  -0.28837  -0.28211
 Alpha  occ. eigenvalues --   -0.27845  -0.27543  -0.27110  -0.25532  -0.24971
 Alpha  occ. eigenvalues --   -0.24409  -0.23949  -0.22702  -0.22293  -0.19762
 Alpha  occ. eigenvalues --   -0.18981  -0.18597  -0.18276  -0.18059  -0.12973
 Alpha virt. eigenvalues --   -0.10631  -0.06547  -0.05754  -0.00302   0.00406
 Alpha virt. eigenvalues --    0.00613   0.01732   0.02185   0.02488   0.03233
 Alpha virt. eigenvalues --    0.03473   0.04025   0.04571   0.04723   0.05237

 Mulliken charges:
               1
     1  C   -0.390106
     2  C    0.169044
     3  N   -0.217297
     4  C   -0.205341
     5  C    0.014777
     6  N    0.060285
     7  C   -0.300054
     8  C   -0.190552
     9  S    0.035754
    10  C   -0.332589
    11  Fe  -0.370513
    12  C   -0.670388
    13  C   -0.529983
    14  C   -0.475162
    15  C   -0.517311
    16  N    0.056958
    17  C    0.273347
    18  C    0.022971
    19  C   -0.086435
    20  C    0.262061
    21  C   -0.410402
    22  C   -0.294048
    23  C   -0.186719
    24  C    0.266145
    25  O   -0.321013
    26  O   -0.406916
    27  N   -0.062816
    28  C    0.274579
    29  C   -0.096292
    30  C    0.084777
    31  C    0.090813
    32  C   -0.365625
    33  C   -0.294241
    34  C   -0.302641
    35  N    0.055726
    36  C    0.297067
    37  C   -0.067335
    38  C    0.008230
    39  C    0.245148
    40  C   -0.387075
    41  C   -0.299936
    42  C   -0.304677
    43  N    0.015126
    44  C    0.311085
    45  C   -0.075824
    46  C    0.046529
    47  C    0.170774
    48  C   -0.396991
    49  C   -0.276298
    50  C   -0.196796
    51  C    0.253414
    52  O   -0.378012
    53  O   -0.319960
    54  H    0.133612
    55  H    0.145807
    56  H    0.139702
    57  H    0.148570
    58  H    0.230334
    59  H    0.167255
    60  H    0.137842
    61  H    0.135552
    62  H    0.150563
    63  H    0.063160
    64  H    0.132814
    65  H    0.126115
    66  H    0.124552
    67  H    0.135287
    68  H    0.137559
    69  H    0.127387
    70  H    0.109192
    71  H    0.106609
    72  H    0.121354
    73  H    0.121371
    74  H    0.138034
    75  H    0.113794
    76  H    0.130208
    77  H    0.134754
    78  H    0.141156
    79  H    0.123006
    80  H    0.127963
    81  H    0.142049
    82  H    0.130074
    83  H    0.079198
    84  H    0.132741
    85  H    0.128551
    86  H    0.139039
    87  H    0.143138
    88  H    0.139428
    89  H    0.109755
    90  H    0.120305
    91  H    0.348288
    92  H    0.114095
    93  H    0.109688
    94  H    0.128067
    95  H    0.130215
    96  H    0.142546
    97  H    0.113882
    98  H    0.130746
    99  H    0.139887
   100  H    0.146204
   101  H    0.343294
 Sum of Mulliken charges =  -0.00000

 Dipole moment (field-independent basis, Debye):
    X=              0.7316    Y=             -1.4334    Z=              3.0712  Tot=              3.4673
 Quadrupole moment (field-independent basis, Debye-Ang):
   XX=           -307.5393   YY=           -316.5647   ZZ=           -315.4509
   XY=              4.4307   XZ=              0.9712   YZ=             18.3343

  Exact polarizability: 930.043 -57.664 986.354 -44.596 132.095 475.171
 Approx polarizability:2315.477********6701.991-667.4951896.9221288.018

 Normal termination of Gaussian 16 at Sat Feb  4 12:22:17 2023.
