 Gaussian 16, Revision A.03,
 Gaussian 16:  ES64L-G16RevA.03 25-Dec-2016

 ---------------------------------------------------------------------
 # polar def2tzvp empiricaldispersion=gd3bj int=grid=ultrafine pbe1pbe
 ---------------------------------------------------------------------

 ---------
 351c_II_S
 ---------
 Symbolic Z-matrix:
 Charge =  0 Multiplicity = 1

                         Standard orientation:
 ---------------------------------------------------------------------
 Center     Atomic      Atomic             Coordinates (Angstroms)
 Number     Number       Type             X           Y           Z
 ---------------------------------------------------------------------
      1          6           0        3.355220   -0.883368    5.019160
      2          6           0        2.335161   -0.535055    3.949218
      3          7           0        1.000325   -0.498289    4.190973
      4          6           0        2.531811   -0.337203    2.591447
      5          6           0        0.370357   -0.268666    3.009108
      6          7           0        1.306606   -0.164826    2.022108
      7          6           0       -0.793115    2.323822   -2.801540
      8          6           0        0.546469    1.589718   -2.981526
      9         16           0        0.598976   -0.064391   -2.259129
     10          6           0       -0.962090   -0.830809   -2.735455
     11          6           0       -2.472595   -0.020912    0.531683
     12          6           0        0.862364   -3.462374    0.029589
     13          6           0        4.221980   -0.087699   -0.764280
     14          6           0        1.010622    3.327315    0.341990
     15          6           0       -1.869601   -1.260294    0.449765
     16          6           0       -2.508043   -2.479553    0.567609
     17          6           0       -1.533808   -3.460682    0.493067
     18          6           0       -0.340683   -2.824911    0.245798
     19          6           0       -1.715440   -4.957978    0.615956
     20          6           0       -3.987309   -2.695827    0.724154
     21          6           0       -4.625826   -2.624295   -0.644109
     22          6           0       -6.124542   -2.840663   -0.541078
     23          8           0       -6.614281   -3.059233    0.561797
     24          8           0       -6.667193   -3.453518   -1.537584
     25          6           0        2.080293   -2.856022   -0.199285
     26          6           0        3.265483   -3.523949   -0.512008
     27          6           0        4.210682   -2.555865   -0.842753
     28          6           0        3.612086   -1.317416   -0.611085
     29          6           0        3.447881   -5.024800   -0.581209
     30          6           0        5.623900   -2.775317   -1.358427
     31          6           0        5.696660   -3.436339   -2.730498
     32          6           0        3.628597    1.144453   -0.551669
     33          6           0        4.286277    2.367009   -0.597596
     34          6           0        3.403427    3.311056   -0.130347
     35          6           0        2.182405    2.694756    0.008720
     36          6           0        5.739150    2.613031   -0.923939
     37          6           0        3.732675    4.737420    0.241809
     38          6           0        4.113903    5.639931   -0.912847
     39          6           0       -0.218464    2.719703    0.462390
     40          6           0       -1.412316    3.389717    0.697436
     41          6           0       -2.422829    2.433764    0.656202
     42          6           0       -1.813822    1.193622    0.495370
     43          6           0       -1.569387    4.884039    0.928578
     44          6           0       -3.910654    2.668551    0.796244
     45          6           0       -4.610684    2.688060   -0.554764
     46          6           0       -6.122585    2.837569   -0.368314
     47          8           0       -6.868833    2.340931   -1.215753
     48          8           0       -6.628734    3.681253    0.516931
     49          7           0       -0.551814   -1.487584    0.263036
     50          7           0        2.306338   -1.514656   -0.249746
     51          7           0        2.341695    1.370514   -0.184024
     52          7           0       -0.462163    1.375212    0.342083
     53         26           0        0.907417   -0.032164    0.076737
     54          1           0       -0.672038    3.119069   -2.095974
     55          1           0       -1.108556    2.725982   -3.741575
     56          1           0       -1.530643    1.637102   -2.441863
     57          1           0        0.748730    1.507578   -4.029020
     58          1           0        1.318001    2.179376   -2.532148
     59          1           0       -1.756316   -0.122866   -2.621776
     60          1           0       -0.908045   -1.145249   -3.756781
     61          1           0       -1.148276   -1.679118   -2.110470
     62          1           0       -4.242544    3.510405   -1.131930
     63          1           0       -4.406872    1.773745   -1.071861
     64          1           0       -4.070507    3.607033    1.284710
     65          1           0       -4.331395    1.887981    1.395067
     66          1           0       -7.569888    3.671279    0.705952
     67          1           0       -7.615568   -3.398666   -1.676059
     68          1           0       -4.436381   -1.662283   -1.072530
     69          1           0       -4.202053   -3.380239   -1.271696
     70          1           0       -4.398339   -1.934867    1.354148
     71          1           0       -4.167353   -3.657991    1.156271
     72          1           0       -2.725622   -5.172955    0.895628
     73          1           0       -1.499090   -5.421816   -0.323697
     74          1           0       -1.050035   -5.337870    1.362828
     75          1           0       -3.537700    0.001153    0.631510
     76          1           0       -1.874488    5.058495    1.939211
     77          1           0       -0.634766    5.372950    0.748717
     78          1           0       -2.309460    5.272439    0.260493
     79          1           0        1.056583    4.380834    0.523331
     80          1           0        6.219973    3.073047   -0.086029
     81          1           0        6.218179    1.681654   -1.142952
     82          1           0        5.809321    3.258812   -1.774200
     83          1           0        5.245734   -0.087617   -1.075452
     84          1           0        2.538260   -5.508350   -0.291952
     85          1           0        3.699606   -5.307734   -1.581950
     86          1           0        4.234729   -5.319391    0.081352
     87          1           0        0.850376   -4.532253    0.040335
     88          1           0        2.868092   -0.944786    5.969862
     89          1           0        3.806759   -1.825539    4.788234
     90          1           0        4.109465   -0.125175    5.053183
     91          1           0        3.473549   -0.322578    2.083690
     92          1           0        0.559044   -0.618699    5.080227
     93          1           0       -0.687687   -0.183201    2.874427
     94          1           0        4.854242   -3.396271   -3.389001
     95          1           0        6.590138   -3.940284   -3.034860
     96          1           0        6.494145   -2.489943   -0.805131
     97          1           0        3.742384    6.642540   -0.953478
     98          1           0        4.754795    5.275037   -1.688094
     99          1           0        3.698838    5.086459    1.252713
 ---------------------------------------------------------------------

 SCF Done:  E(RPBE1PBE) =  -3879.35362947     A.U. after   22 cycles

 The electronic state is 1-A.
 Alpha  occ. eigenvalues -- -256.30344 -89.01400 -30.07196 -25.89993 -25.89665
 Alpha  occ. eigenvalues --  -25.89634 -19.25785 -19.24655 -19.18175 -19.17773
 Alpha  occ. eigenvalues --  -14.45362 -14.39696 -14.35979 -14.35710 -14.35547
 Alpha  occ. eigenvalues --  -14.35416 -10.35750 -10.34633 -10.28251 -10.26365
 Alpha  occ. eigenvalues --  -10.25746 -10.25279 -10.24007 -10.23789 -10.23574
 Alpha  occ. eigenvalues --  -10.23473 -10.23354 -10.23204 -10.23186 -10.23153
 Alpha  occ. eigenvalues --  -10.23149 -10.23117 -10.23115 -10.23047 -10.22998
 Alpha  occ. eigenvalues --  -10.22860 -10.22698 -10.22482 -10.22350 -10.21785
 Alpha  occ. eigenvalues --  -10.21547 -10.21461 -10.21459 -10.21451 -10.21353
 Alpha  occ. eigenvalues --  -10.21338 -10.21292 -10.21178 -10.21117 -10.21090
 Alpha  occ. eigenvalues --  -10.20906 -10.20871 -10.20725 -10.20588 -10.20374
 Alpha  occ. eigenvalues --  -10.20085 -10.19597  -7.99189  -5.92863  -5.92545
 Alpha  occ. eigenvalues --   -5.92009  -3.41679  -2.17650  -2.16962  -2.16925
 Alpha  occ. eigenvalues --   -1.15009  -1.14162  -1.05559  -1.03010  -1.02836
 Alpha  occ. eigenvalues --   -0.98503  -0.97999  -0.96945  -0.96433  -0.91088
 Alpha  occ. eigenvalues --   -0.84293  -0.83671  -0.83264  -0.82940  -0.81533
 Alpha  occ. eigenvalues --   -0.81273  -0.81019  -0.80546  -0.80387  -0.78987
 Alpha  occ. eigenvalues --   -0.78409  -0.76271  -0.75544  -0.75476  -0.74663
 Alpha  occ. eigenvalues --   -0.73445  -0.72603  -0.72068  -0.71166  -0.70211
 Alpha  occ. eigenvalues --   -0.69332  -0.68978  -0.68405  -0.67637  -0.66219
 Alpha  occ. eigenvalues --   -0.65976  -0.65347  -0.64789  -0.63240  -0.62011
 Alpha  occ. eigenvalues --   -0.61944  -0.61251  -0.59235  -0.59004  -0.58097
 Alpha  occ. eigenvalues --   -0.56572  -0.55956  -0.55110  -0.54745  -0.53191
 Alpha  occ. eigenvalues --   -0.52504  -0.52097  -0.51853  -0.51405  -0.50936
 Alpha  occ. eigenvalues --   -0.50506  -0.49858  -0.48981  -0.48657  -0.48557
 Alpha  occ. eigenvalues --   -0.48265  -0.48070  -0.47814  -0.47655  -0.47417
 Alpha  occ. eigenvalues --   -0.46924  -0.46180  -0.45472  -0.45379  -0.45087
 Alpha  occ. eigenvalues --   -0.44926  -0.44761  -0.44318  -0.44224  -0.43783
 Alpha  occ. eigenvalues --   -0.43529  -0.43333  -0.43274  -0.43027  -0.42949
 Alpha  occ. eigenvalues --   -0.42920  -0.42537  -0.42314  -0.42156  -0.42079
 Alpha  occ. eigenvalues --   -0.41500  -0.41245  -0.40981  -0.40801  -0.40642
 Alpha  occ. eigenvalues --   -0.40553  -0.40063  -0.39866  -0.39702  -0.39582
 Alpha  occ. eigenvalues --   -0.39273  -0.39143  -0.38880  -0.38702  -0.38275
 Alpha  occ. eigenvalues --   -0.37855  -0.37776  -0.37659  -0.37129  -0.36837
 Alpha  occ. eigenvalues --   -0.36637  -0.36419  -0.36040  -0.35769  -0.35562
 Alpha  occ. eigenvalues --   -0.35449  -0.35052  -0.34648  -0.33185  -0.32945
 Alpha  occ. eigenvalues --   -0.32710  -0.32338  -0.32216  -0.31717  -0.30735
 Alpha  occ. eigenvalues --   -0.29449  -0.29067  -0.28368  -0.28256  -0.27855
 Alpha  occ. eigenvalues --   -0.27649  -0.25548  -0.25385  -0.24469  -0.24167
 Alpha  occ. eigenvalues --   -0.22820  -0.22667  -0.22171  -0.21563  -0.19587
 Alpha  occ. eigenvalues --   -0.19536  -0.18441  -0.17913  -0.17620
 Alpha virt. eigenvalues --   -0.07300  -0.07075  -0.05024  -0.03314  -0.01610
 Alpha virt. eigenvalues --   -0.00780  -0.00200   0.01618   0.02104   0.02530
 Alpha virt. eigenvalues --    0.03663   0.03884   0.04322   0.04429   0.04825

 Mulliken charges:
               1
     1  C   -0.359513
     2  C    0.121586
     3  N   -0.213336
     4  C   -0.188431
     5  C   -0.020063
     6  N    0.079663
     7  C   -0.347294
     8  C   -0.135573
     9  S    0.012430
    10  C   -0.352947
    11  C   -0.648851
    12  C   -0.518299
    13  C   -0.530663
    14  C   -0.534425
    15  C    0.214991
    16  C    0.106572
    17  C   -0.059908
    18  C    0.223100
    19  C   -0.390286
    20  C   -0.363854
    21  C   -0.200820
    22  C    0.287894
    23  O   -0.342695
    24  O   -0.360865
    25  C    0.306862
    26  C   -0.046173
    27  C   -0.050543
    28  C    0.253338
    29  C   -0.340914
    30  C   -0.264188
    31  C   -0.308728
    32  C    0.331667
    33  C   -0.056383
    34  C    0.035361
    35  C    0.191480
    36  C   -0.363498
    37  C   -0.276614
    38  C   -0.287213
    39  C    0.301532
    40  C   -0.065255
    41  C    0.113510
    42  C    0.193156
    43  C   -0.406265
    44  C   -0.393418
    45  C   -0.132548
    46  C    0.259177
    47  O   -0.348112
    48  O   -0.373641
    49  N   -0.044986
    50  N   -0.007746
    51  N    0.027293
    52  N    0.097161
    53  Fe  -0.387332
    54  H    0.125664
    55  H    0.120292
    56  H    0.087933
    57  H    0.126368
    58  H    0.140695
    59  H    0.118627
    60  H    0.147502
    61  H    0.160799
    62  H    0.131202
    63  H    0.135587
    64  H    0.135325
    65  H    0.125952
    66  H    0.341656
    67  H    0.337832
    68  H    0.130569
    69  H    0.140177
    70  H    0.121984
    71  H    0.125677
    72  H    0.126152
    73  H    0.136065
    74  H    0.136585
    75  H    0.122290
    76  H    0.142096
    77  H    0.125124
    78  H    0.131209
    79  H    0.102283
    80  H    0.134748
    81  H    0.121225
    82  H    0.123201
    83  H    0.092057
    84  H    0.113881
    85  H    0.136087
    86  H    0.127112
    87  H    0.108579
    88  H    0.114124
    89  H    0.148122
    90  H    0.146750
    91  H    0.157973
    92  H    0.234741
    93  H    0.176356
    94  H    0.152791
    95  H    0.132534
    96  H    0.137137
    97  H    0.141387
    98  H    0.140174
    99  H    0.149980
 Sum of Mulliken charges =  -0.00000

 Dipole moment (field-independent basis, Debye):
    X=              0.8769    Y=              1.0994    Z=              3.9045  Tot=              4.1501
 Quadrupole moment (field-independent basis, Debye-Ang):
   XX=           -323.4504   YY=           -311.7215   ZZ=           -293.1187
   XY=             -8.2516   XZ=              7.7827   YZ=              4.8818

  Exact polarizability: 812.028   3.406 750.728 -54.000   9.533 451.037
 Approx polarizability:1406.355  13.5091389.448-150.942  25.034 747.420

 Normal termination of Gaussian 16 at Fri Feb  3 20:51:18 2023.
