 Gaussian 16, Revision A.03,
 Gaussian 16:  ES64L-G16RevA.03 25-Dec-2016

 ----------------------------------------------------------------------
 # PBE1PBE/def2TZVP empiricaldispersion=GD3BJ scf=maxcycle=999 geom=che
 ck pop=nbo
 ----------------------------------------------------------------------

 ----------
 351c_III_D
 ----------
 Structure from the checkpoint file:  "351c_III_D.chk"
 Charge =  1 Multiplicity = 2

                         Standard orientation:
 ---------------------------------------------------------------------
 Center     Atomic      Atomic             Coordinates (Angstroms)
 Number     Number       Type             X           Y           Z
 ---------------------------------------------------------------------
      1          6           0        3.355220   -0.883368    5.019160
      2          6           0        2.335161   -0.535055    3.949218
      3          7           0        1.000325   -0.498289    4.190973
      4          6           0        2.531811   -0.337203    2.591447
      5          6           0        0.370357   -0.268666    3.009108
      6          7           0        1.306606   -0.164826    2.022108
      7          6           0       -0.793115    2.323822   -2.801540
      8          6           0        0.546469    1.589718   -2.981526
      9         16           0        0.598976   -0.064391   -2.259129
     10          6           0       -0.962090   -0.830809   -2.735455
     11          6           0       -2.472595   -0.020912    0.531683
     12          6           0        0.862364   -3.462374    0.029589
     13          6           0        4.221980   -0.087699   -0.764280
     14          6           0        1.010622    3.327315    0.341990
     15          6           0       -1.869601   -1.260294    0.449765
     16          6           0       -2.508043   -2.479553    0.567609
     17          6           0       -1.533808   -3.460682    0.493067
     18          6           0       -0.340683   -2.824911    0.245798
     19          6           0       -1.715440   -4.957978    0.615956
     20          6           0       -3.987309   -2.695827    0.724154
     21          6           0       -4.625826   -2.624295   -0.644109
     22          6           0       -6.124542   -2.840663   -0.541078
     23          8           0       -6.614281   -3.059233    0.561797
     24          8           0       -6.667193   -3.453518   -1.537584
     25          6           0        2.080293   -2.856022   -0.199285
     26          6           0        3.265483   -3.523949   -0.512008
     27          6           0        4.210682   -2.555865   -0.842753
     28          6           0        3.612086   -1.317416   -0.611085
     29          6           0        3.447881   -5.024800   -0.581209
     30          6           0        5.623900   -2.775317   -1.358427
     31          6           0        5.696660   -3.436339   -2.730498
     32          6           0        3.628597    1.144453   -0.551669
     33          6           0        4.286277    2.367009   -0.597596
     34          6           0        3.403427    3.311056   -0.130347
     35          6           0        2.182405    2.694756    0.008720
     36          6           0        5.739150    2.613031   -0.923939
     37          6           0        3.732675    4.737420    0.241809
     38          6           0        4.113903    5.639931   -0.912847
     39          6           0       -0.218464    2.719703    0.462390
     40          6           0       -1.412316    3.389717    0.697436
     41          6           0       -2.422829    2.433764    0.656202
     42          6           0       -1.813822    1.193622    0.495370
     43          6           0       -1.569387    4.884039    0.928578
     44          6           0       -3.910654    2.668551    0.796244
     45          6           0       -4.610684    2.688060   -0.554764
     46          6           0       -6.122585    2.837569   -0.368314
     47          8           0       -6.868833    2.340931   -1.215753
     48          8           0       -6.628734    3.681253    0.516931
     49          7           0       -0.551814   -1.487584    0.263036
     50          7           0        2.306338   -1.514656   -0.249746
     51          7           0        2.341695    1.370514   -0.184024
     52          7           0       -0.462163    1.375212    0.342083
     53         26           0        0.907417   -0.032164    0.076737
     54          1           0       -0.672038    3.119069   -2.095974
     55          1           0       -1.108556    2.725982   -3.741575
     56          1           0       -1.530643    1.637102   -2.441863
     57          1           0        0.748730    1.507578   -4.029020
     58          1           0        1.318001    2.179376   -2.532148
     59          1           0       -1.756316   -0.122866   -2.621776
     60          1           0       -0.908045   -1.145249   -3.756781
     61          1           0       -1.148276   -1.679118   -2.110470
     62          1           0       -4.242544    3.510405   -1.131930
     63          1           0       -4.406872    1.773745   -1.071861
     64          1           0       -4.070507    3.607033    1.284710
     65          1           0       -4.331395    1.887981    1.395067
     66          1           0       -7.569888    3.671279    0.705952
     67          1           0       -7.615568   -3.398666   -1.676059
     68          1           0       -4.436381   -1.662283   -1.072530
     69          1           0       -4.202053   -3.380239   -1.271696
     70          1           0       -4.398339   -1.934867    1.354148
     71          1           0       -4.167353   -3.657991    1.156271
     72          1           0       -2.725622   -5.172955    0.895628
     73          1           0       -1.499090   -5.421816   -0.323697
     74          1           0       -1.050035   -5.337870    1.362828
     75          1           0       -3.537700    0.001153    0.631510
     76          1           0       -1.874488    5.058495    1.939211
     77          1           0       -0.634766    5.372950    0.748717
     78          1           0       -2.309460    5.272439    0.260493
     79          1           0        1.056583    4.380834    0.523331
     80          1           0        6.219973    3.073047   -0.086029
     81          1           0        6.218179    1.681654   -1.142952
     82          1           0        5.809321    3.258812   -1.774200
     83          1           0        5.245734   -0.087617   -1.075452
     84          1           0        2.538260   -5.508350   -0.291952
     85          1           0        3.699606   -5.307734   -1.581950
     86          1           0        4.234729   -5.319391    0.081352
     87          1           0        0.850376   -4.532253    0.040335
     88          1           0        2.868092   -0.944786    5.969862
     89          1           0        3.806759   -1.825539    4.788234
     90          1           0        4.109465   -0.125175    5.053183
     91          1           0        3.473549   -0.322578    2.083690
     92          1           0        0.559044   -0.618699    5.080227
     93          1           0       -0.687687   -0.183201    2.874427
     94          1           0        4.854242   -3.396271   -3.389001
     95          1           0        6.590138   -3.940284   -3.034860
     96          1           0        6.494145   -2.489943   -0.805131
     97          1           0        3.742384    6.642540   -0.953478
     98          1           0        4.754795    5.275037   -1.688094
     99          1           0        3.698838    5.086459    1.252713
 ---------------------------------------------------------------------

 SCF Done:  E(UPBE1PBE) =  -3879.17567103     A.U. after   87 cycles

 Alpha virt. eigenvalues --    0.92502   0.92603   0.92798   0.93133   0.93711
 Alpha virt. eigenvalues --    0.93744   0.93932   0.94190   0.94635   0.94814
 Alpha virt. eigenvalues --    0.95112   0.95398   0.95590   0.96006   0.96238

  Beta  occ. eigenvalues -- -256.50216 -89.14339 -30.26602 -26.09639 -26.09459
  Beta  occ. eigenvalues --  -26.08748 -19.32664 -19.31478 -19.25267 -19.24920
  Beta  occ. eigenvalues --  -14.56247 -14.52113 -14.48350 -14.47941 -14.47746
  Beta  occ. eigenvalues --  -14.47632 -10.43007 -10.41927 -10.39969 -10.37067
  Beta  occ. eigenvalues --  -10.35010 -10.34690 -10.34685 -10.34649 -10.34602
  Beta  occ. eigenvalues --  -10.34569 -10.34509 -10.34450 -10.34436 -10.34401
  Beta  occ. eigenvalues --  -10.34070 -10.34059 -10.33660 -10.33113 -10.32703
  Beta  occ. eigenvalues --  -10.32377 -10.32338 -10.32294 -10.32247 -10.32160
  Beta  occ. eigenvalues --  -10.32152 -10.32078 -10.32039 -10.31957 -10.31920
  Beta  occ. eigenvalues --  -10.31886 -10.31509 -10.31448 -10.31346 -10.31114
  Beta  occ. eigenvalues --  -10.31091 -10.30277 -10.30236 -10.29829 -10.29760
  Beta  occ. eigenvalues --  -10.29494 -10.29209  -8.12120  -6.05738  -6.05477
  Beta  occ. eigenvalues --   -6.05019  -3.58939  -2.34260  -2.34184  -2.33640
  Beta  occ. eigenvalues --   -1.21923  -1.21091  -1.16738  -1.10113  -1.10031
  Beta  occ. eigenvalues --   -1.09905  -1.09534  -1.08562  -1.07992  -1.02651
  Beta  occ. eigenvalues --   -0.94982  -0.94702  -0.93262  -0.92981  -0.92333
  Beta  occ. eigenvalues --   -0.91946  -0.91617  -0.90769  -0.90704  -0.88857
  Beta  occ. eigenvalues --   -0.88054  -0.86560  -0.86468  -0.86091  -0.84083
  Beta  occ. eigenvalues --   -0.83009  -0.82284  -0.81916  -0.81002  -0.80103
  Beta  occ. eigenvalues --   -0.79410  -0.78700  -0.78056  -0.77410  -0.76611
  Beta  occ. eigenvalues --   -0.76426  -0.76198  -0.72938  -0.72876  -0.71679
  Beta  occ. eigenvalues --   -0.71358  -0.70628  -0.70433  -0.69727  -0.69224
  Beta  occ. eigenvalues --   -0.67064  -0.66692  -0.65640  -0.65127  -0.63314
  Beta  occ. eigenvalues --   -0.62551  -0.62473  -0.62418  -0.60338  -0.60090
  Beta  occ. eigenvalues --   -0.59306  -0.59014  -0.58888  -0.58520  -0.58380
  Beta  occ. eigenvalues --   -0.58183  -0.58022  -0.57975  -0.57651  -0.56227
  Beta  occ. eigenvalues --   -0.56125  -0.55819  -0.55533  -0.55487  -0.54973
  Beta  occ. eigenvalues --   -0.54779  -0.54541  -0.54148  -0.53994  -0.53743
  Beta  occ. eigenvalues --   -0.53536  -0.53266  -0.53084  -0.52987  -0.52747
  Beta  occ. eigenvalues --   -0.52455  -0.52067  -0.51826  -0.51608  -0.51402
  Beta  occ. eigenvalues --   -0.51248  -0.51155  -0.50880  -0.50753  -0.50600
  Beta  occ. eigenvalues --   -0.50203  -0.50050  -0.49772  -0.49680  -0.49295
  Beta  occ. eigenvalues --   -0.48958  -0.48762  -0.48349  -0.48015  -0.47883
  Beta  occ. eigenvalues --   -0.47621  -0.47560  -0.47204  -0.47175  -0.46993
  Beta  occ. eigenvalues --   -0.46655  -0.46440  -0.46310  -0.46105  -0.45812
  Beta  occ. eigenvalues --   -0.45653  -0.45034  -0.44795  -0.43969  -0.43785
  Beta  occ. eigenvalues --   -0.43653  -0.43573  -0.43069  -0.41672  -0.41090
  Beta  occ. eigenvalues --   -0.40047  -0.39703  -0.39251  -0.38978  -0.38541
  Beta  occ. eigenvalues --   -0.37033  -0.36001  -0.35338  -0.35019  -0.34628
  Beta  occ. eigenvalues --   -0.34545  -0.34335  -0.33202  -0.32693  -0.31864
  Beta  occ. eigenvalues --   -0.31198  -0.30175  -0.29722
  Beta virt. eigenvalues --   -0.19423  -0.18248  -0.16141  -0.14095  -0.13497
  Beta virt. eigenvalues --   -0.12520  -0.10902  -0.10518  -0.09219  -0.08796
  Beta virt. eigenvalues --   -0.07647  -0.06737  -0.06282  -0.05957  -0.04822

 Mulliken charges and spin densities:
               1          2
     1  C   -0.347437  -0.000367
     2  C    0.113354  -0.000765
     3  N   -0.193390   0.002195
     4  C   -0.183010   0.001903
     5  C   -0.002214   0.021433
     6  N    0.092421  -0.047069
     7  C   -0.356826   0.000530
     8  C   -0.143139   0.005101
     9  S    0.050032  -0.044352
    10  C   -0.358710   0.000151
    11  C   -0.644688  -0.001977
    12  C   -0.505590  -0.004983
    13  C   -0.520757  -0.004325
    14  C   -0.533220  -0.009069
    15  C    0.220685   0.003760
    16  C    0.111338  -0.003310
    17  C   -0.064555   0.010797
    18  C    0.230315   0.003059
    19  C   -0.371779  -0.000804
    20  C   -0.358316  -0.000597
    21  C   -0.204745  -0.000058
    22  C    0.287805  -0.000035
    23  O   -0.331694  -0.000006
    24  O   -0.356896  -0.000005
    25  C    0.321394   0.002997
    26  C   -0.045001   0.016208
    27  C   -0.062800  -0.001137
    28  C    0.263116   0.008562
    29  C   -0.331319  -0.000864
    30  C   -0.260732   0.001655
    31  C   -0.289207  -0.002768
    32  C    0.335457   0.007774
    33  C   -0.059922  -0.004070
    34  C    0.024818   0.012342
    35  C    0.213624   0.004244
    36  C   -0.352049  -0.000431
    37  C   -0.275938   0.018927
    38  C   -0.264111  -0.017718
    39  C    0.316359   0.002957
    40  C   -0.068484   0.015687
    41  C    0.123066   0.003037
    42  C    0.200475   0.004556
    43  C   -0.387352  -0.000867
    44  C   -0.386014  -0.001357
    45  C   -0.135329   0.000216
    46  C    0.257988   0.000034
    47  O   -0.335279   0.000025
    48  O   -0.371767  -0.000005
    49  N   -0.033999  -0.035410
    50  N    0.002602  -0.038952
    51  N    0.043984  -0.035213
    52  N    0.106773  -0.036484
    53  Fe  -0.376230   1.145825
    54  H    0.132746  -0.000014
    55  H    0.148360   0.000276
    56  H    0.090219   0.000140
    57  H    0.156370  -0.001857
    58  H    0.150991  -0.000398
    59  H    0.137398  -0.000034
    60  H    0.176018  -0.001715
    61  H    0.168705  -0.000357
    62  H    0.137020  -0.000001
    63  H    0.130268   0.000003
    64  H    0.150405  -0.000039
    65  H    0.133731   0.000100
    66  H    0.352881   0.000003
    67  H    0.349007  -0.000006
    68  H    0.125984  -0.000007
    69  H    0.145235   0.000007
    70  H    0.130147  -0.000025
    71  H    0.139348  -0.000109
    72  H    0.141291  -0.000049
    73  H    0.147756   0.000544
    74  H    0.146815   0.000445
    75  H    0.143121   0.000071
    76  H    0.158528   0.000675
    77  H    0.132305   0.000007
    78  H    0.146759   0.000518
    79  H    0.124856   0.000232
    80  H    0.151468  -0.000094
    81  H    0.129421  -0.000026
    82  H    0.136616  -0.000152
    83  H    0.115419   0.000156
    84  H    0.122056  -0.000013
    85  H    0.150273   0.000639
    86  H    0.144931   0.000553
    87  H    0.130035  -0.000002
    88  H    0.130112  -0.000053
    89  H    0.158568   0.000062
    90  H    0.158378   0.000063
    91  H    0.172915  -0.000322
    92  H    0.255451  -0.000377
    93  H    0.192799  -0.001184
    94  H    0.159356   0.000107
    95  H    0.155762   0.000117
    96  H    0.155521  -0.000048
    97  H    0.161241   0.001080
    98  H    0.151998   0.000952
    99  H    0.168310  -0.000846
 Sum of Mulliken charges =   1.00000   1.00000

 Dipole moment (field-independent basis, Debye):
    X=              4.7518    Y=              1.2724    Z=              3.6480  Tot=              6.1243
 Quadrupole moment (field-independent basis, Debye-Ang):
   XX=           -260.9477   YY=           -260.0117   ZZ=           -264.3287
   XY=             -8.2904   XZ=              4.9760   YZ=              4.4219

 Summary of Natural Population Analysis:

                                       Natural Population
                Natural  -----------------------------------------------
    Atom  No    Charge         Core      Valence    Rydberg      Total
 -----------------------------------------------------------------------
      C    1   -0.32018      0.99969     2.31743    0.00305     3.32018
      C    2    0.06406      0.99961     1.92724    0.00909     2.93594
      N    3   -0.23159      0.99969     2.72223    0.00967     3.73159
      C    4   -0.03063      0.99949     2.02181    0.00933     3.03063
      C    5    0.10569      0.99969     1.88433    0.01030     2.89431
      N    6   -0.18029      0.99969     2.65657    0.02403     3.68029
      C    7   -0.30980      0.99972     2.30441    0.00566     3.30980
      C    8   -0.26456      0.99964     2.25598    0.00893     3.26456
      S    9    0.28288      4.99933     2.69820    0.01959     7.71712
      C   10   -0.37370      0.99963     2.36530    0.00877     3.37370
      C   11   -0.11590      0.99949     2.10762    0.00879     3.11590
      C   12   -0.09451      0.99950     2.08690    0.00811     3.09451
      C   13   -0.10070      0.99950     2.09338    0.00783     3.10070
      C   14   -0.10261      0.99949     2.09505    0.00807     3.10261
      C   15    0.06825      0.99945     1.92145    0.01086     2.93175
      C   16   -0.01210      0.99944     2.00286    0.00980     3.01210
      C   17    0.00370      0.99942     1.98826    0.00862     2.99630
      C   18    0.05980      0.99943     1.93001    0.01075     2.94020
      C   19   -0.32130      0.99970     2.31801    0.00359     3.32130
      C   20   -0.21171      0.99967     2.20387    0.00816     3.21171
      C   21   -0.24683      0.99962     2.23858    0.00863     3.24683
      C   22    0.37528      0.99974     1.60712    0.01786     2.62472
      O   23   -0.28479      0.99988     3.27198    0.01292     4.28479
      O   24   -0.33424      0.99984     3.32151    0.01289     4.33424
      C   25    0.06607      0.99946     1.92386    0.01061     2.93393
      C   26    0.01996      0.99945     1.97222    0.00837     2.98004
      C   27   -0.04346      0.99941     2.03333    0.01072     3.04346
      C   28    0.08090      0.99946     1.90918    0.01046     2.91910
      C   29   -0.31842      0.99970     2.31248    0.00624     3.31842
      C   30   -0.10613      0.99972     2.09984    0.00657     3.10613
      C   31   -0.17609      0.99975     2.17154    0.00480     3.17609
      C   32    0.07438      0.99946     1.91529    0.01088     2.92562
      C   33   -0.00349      0.99942     1.99562    0.00845     3.00349
      C   34   -0.03142      0.99937     2.02110    0.01095     3.03142
      C   35    0.06724      0.99943     1.92250    0.01083     2.93276
      C   36   -0.31657      0.99970     2.31063    0.00624     3.31657
      C   37   -0.09197      0.99972     2.08378    0.00847     3.09197
      C   38   -0.17506      0.99975     2.17025    0.00505     3.17506
      C   39    0.06815      0.99944     1.92149    0.01092     2.93185
      C   40    0.00789      0.99943     1.98427    0.00841     2.99211
      C   41   -0.00841      0.99944     1.99960    0.00936     3.00841
      C   42    0.07153      0.99945     1.91839    0.01064     2.92847
      C   43   -0.31908      0.99970     2.31563    0.00375     3.31908
      C   44   -0.21593      0.99967     2.20927    0.00699     3.21593
      C   45   -0.24109      0.99962     2.23297    0.00850     3.24109
      C   46    0.37905      0.99976     1.60356    0.01762     2.62095
      O   47   -0.28964      0.99988     3.27681    0.01294     4.28964
      O   48   -0.33859      0.99985     3.32743    0.01131     4.33859
      N   49   -0.21349      0.99967     2.68807    0.02575     3.71349
      N   50   -0.20446      0.99967     2.68115    0.02364     3.70446
      N   51   -0.20730      0.99965     2.68169    0.02595     3.70730
      N   52   -0.20421      0.99966     2.68110    0.02345     3.70421
     Fe   53    0.62477      8.99585     3.35281    0.02657    12.37523
      H   54    0.11254      0.00000     0.38678    0.00068     0.38746
      H   55    0.11241      0.00000     0.38708    0.00052     0.38759
      H   56    0.10219      0.00000     0.39655    0.00127     0.39781
      H   57    0.11570      0.00000     0.38363    0.00067     0.38430
      H   58    0.12469      0.00000     0.37457    0.00074     0.37531
      H   59    0.11177      0.00000     0.38745    0.00078     0.38823
      H   60    0.11787      0.00000     0.38162    0.00052     0.38213
      H   61    0.12763      0.00000     0.37185    0.00052     0.37237
      H   62    0.12020      0.00000     0.37913    0.00067     0.37980
      H   63    0.11703      0.00000     0.38224    0.00073     0.38297
      H   64    0.11813      0.00000     0.38118    0.00069     0.38187
      H   65    0.10809      0.00000     0.39084    0.00107     0.39191
      H   66    0.25811      0.00000     0.24055    0.00135     0.24189
      H   67    0.25592      0.00000     0.24282    0.00127     0.24408
      H   68    0.11188      0.00000     0.38744    0.00069     0.38812
      H   69    0.11983      0.00000     0.37945    0.00072     0.38017
      H   70    0.11515      0.00000     0.38403    0.00082     0.38485
      H   71    0.11790      0.00000     0.38137    0.00073     0.38210
      H   72    0.11452      0.00000     0.38478    0.00070     0.38548
      H   73    0.11432      0.00000     0.38495    0.00073     0.38568
      H   74    0.11373      0.00000     0.38554    0.00072     0.38627
      H   75    0.11393      0.00000     0.38487    0.00120     0.38607
      H   76    0.11684      0.00000     0.38244    0.00073     0.38316
      H   77    0.11032      0.00000     0.38911    0.00058     0.38968
      H   78    0.11490      0.00000     0.38440    0.00070     0.38510
      H   79    0.11595      0.00000     0.38261    0.00143     0.38405
      H   80    0.11740      0.00000     0.38190    0.00070     0.38260
      H   81    0.10898      0.00000     0.39061    0.00040     0.39102
      H   82    0.11327      0.00000     0.38605    0.00068     0.38673
      H   83    0.11630      0.00000     0.38240    0.00131     0.38370
      H   84    0.10631      0.00000     0.39328    0.00041     0.39369
      H   85    0.11959      0.00000     0.37978    0.00063     0.38041
      H   86    0.11817      0.00000     0.38121    0.00062     0.38183
      H   87    0.11298      0.00000     0.38560    0.00142     0.38702
      H   88    0.11108      0.00000     0.38835    0.00056     0.38892
      H   89    0.11918      0.00000     0.38025    0.00057     0.38082
      H   90    0.11966      0.00000     0.37981    0.00053     0.38034
      H   91    0.11982      0.00000     0.37939    0.00079     0.38018
      H   92    0.21640      0.00000     0.28283    0.00077     0.28360
      H   93    0.11635      0.00000     0.38281    0.00084     0.38365
      H   94    0.09992      0.00000     0.39933    0.00075     0.40008
      H   95    0.10164      0.00000     0.39768    0.00068     0.39836
      H   96    0.10981      0.00000     0.38932    0.00086     0.39019
      H   97    0.10277      0.00000     0.39648    0.00075     0.39723
      H   98    0.09867      0.00000     0.40033    0.00100     0.40133
      H   99    0.11081      0.00000     0.38831    0.00088     0.38919
 =======================================================================
   * Total *    1.00000     64.97490   137.39896    0.62613   203.00000

 Normal termination of Gaussian 16 at Thu Feb  9 23:05:31 2023.
