 Gaussian 16, Revision A.03,
 Gaussian 16:  ES64L-G16RevA.03 25-Dec-2016

 ----------------------------------------------------------------------
 # PBE1PBE/def2TZVP scf=maxcycle=999 empiricaldispersion=GD3BJ int=(gri
 d=ultrafine) geom=check pop=nbo guess=read
 ----------------------------------------------------------------------

 ----------
 3ccx_III_H
 ----------
 Structure from the checkpoint file:  "3ccx_III_H.chk"
 Charge =  1 Multiplicity = 6

                         Standard orientation:
 ---------------------------------------------------------------------
 Center     Atomic      Atomic             Coordinates (Angstroms)
 Number     Number       Type             X           Y           Z
 ---------------------------------------------------------------------
      1          6           0       -1.539573   -1.961020    5.107070
      2          6           0       -1.583767   -1.033946    3.882742
      3          7           0       -2.015085    0.224340    3.801803
      4          6           0       -1.125232   -1.329653    2.598305
      5          6           0       -1.834548    0.699400    2.578373
      6          7           0       -1.290794   -0.260400    1.839520
      7          6           0        2.386895   -0.003326    0.038318
      8          6           0       -0.900885    3.492459   -0.293123
      9          6           0       -4.279118    0.234487   -0.875102
     10          6           0       -0.993776   -3.224622   -0.802009
     11          6           0        1.801623    1.280879   -0.021938
     12          6           0        2.521232    2.456089    0.011107
     13          6           0        1.564116    3.473653   -0.087278
     14          6           0        0.337716    2.838532   -0.177076
     15          6           0        1.772330    4.976248    0.027847
     16          6           0        4.038218    2.561357    0.213295
     17          6           0        4.857104    2.785202   -1.057417
     18          6           0        6.368767    2.862431   -0.844485
     19          8           0        6.858836    3.862685   -0.329724
     20          8           0        7.101866    1.931585   -1.174787
     21          6           0       -2.182613    2.944829   -0.362994
     22          6           0       -3.380885    3.669331   -0.380061
     23          6           0       -4.362615    2.699900   -0.564101
     24          6           0       -3.688251    1.476113   -0.613463
     25          6           0       -3.518326    5.180543   -0.234419
     26          6           0       -5.756514    2.807752   -0.641291
     27          6           0       -6.385666    4.013999   -0.305051
     28          6           0       -3.696443   -1.033460   -0.985267
     29          6           0       -4.394625   -2.194723   -1.299111
     30          6           0       -3.406517   -3.182582   -1.363891
     31          6           0       -2.214505   -2.556931   -0.994190
     32          6           0       -5.895519   -2.290644   -1.602777
     33          6           0       -3.468745   -4.556478   -1.642756
     34          6           0       -4.610010   -5.429277   -1.699237
     35          6           0        0.243879   -2.692641   -0.445585
     36          6           0        1.365715   -3.435992   -0.118070
     37          6           0        2.351945   -2.490731    0.122302
     38          6           0        1.757737   -1.248929   -0.064958
     39          6           0        1.486711   -4.956252    0.017465
     40          6           0        3.778404   -2.771710    0.565166
     41          6           0        4.770476   -2.654294   -0.573794
     42          6           0        6.244914   -2.739384   -0.204730
     43          8           0        7.054360   -2.319188   -1.010225
     44          8           0        6.609267   -3.206198    0.870378
     45          7           0        0.476940    1.523026   -0.121546
     46          7           0       -2.387309    1.630569   -0.390212
     47          7           0       -2.389387   -1.251151   -0.808585
     48          7           0        0.455367   -1.377017   -0.336816
     49         26           0       -1.002351    0.113984   -0.120574
     50          1           0        7.596780    4.307700   -0.752809
     51          1           0        4.653260    1.982482   -1.734903
     52          1           0        4.533776    3.699557   -1.509428
     53          1           0        4.230752    3.373697    0.882574
     54          1           0        4.377521    1.657625    0.674859
     55          1           0        7.239579   -2.817886   -1.809346
     56          1           0        4.560521   -3.433840   -1.276024
     57          1           0        4.605536   -1.715339   -1.059652
     58          1           0        3.827472   -3.762553    0.966068
     59          1           0        4.046695   -2.074337    1.331058
     60          1           0        3.447053   -0.026595    0.181231
     61          1           0        1.621217    5.431577   -0.928574
     62          1           0        1.073175    5.380460    0.729770
     63          1           0        2.769042    5.173542    0.363318
     64          1           0       -0.854643    4.560693   -0.333608
     65          1           0       -3.904877    5.592739   -1.143029
     66          1           0       -4.187452    5.401882    0.570678
     67          1           0       -2.559121    5.607738   -0.028677
     68          1           0       -5.340053    0.258247   -1.012046
     69          1           0       -6.095973   -3.202092   -2.126209
     70          1           0       -6.446525   -2.277443   -0.685651
     71          1           0       -6.190758   -1.459291   -2.208240
     72          1           0       -1.017358   -4.284207   -0.949063
     73          1           0       -0.710074   -2.263590    2.281594
     74          1           0       -2.418656    0.738197    4.558825
     75          1           0       -2.083544    1.684832    2.243970
     76          1           0       -0.857409   -2.764276    4.921779
     77          1           0       -1.214078   -1.406821    5.962533
     78          1           0       -2.516451   -2.357627    5.289585
     79          1           0        2.154883   -5.328965   -0.730554
     80          1           0        1.866703   -5.198698    0.987890
     81          1           0        0.523105   -5.403533   -0.110224
     82          1           0       -6.341332    1.969174   -0.957005
     83          1           0       -7.122637    4.433125   -0.957820
     84          1           0       -6.129060    4.515874    0.604440
     85          1           0       -4.553297   -6.349683   -2.241950
     86          1           0       -5.516009   -5.158369   -1.198562
     87          1           0       -2.527300   -5.023874   -1.843063
 ---------------------------------------------------------------------

 SCF Done:  E(UPBE1PBE) =  -3362.01843399     A.U. after    1 cycles

 Alpha virt. eigenvalues --    0.51193   0.51679   0.51890   0.52046   0.52453
 Alpha virt. eigenvalues --    0.52593   0.52945   0.53253   0.53370   0.53529
 Alpha virt. eigenvalues --    0.53893   0.54129   0.54244   0.54449   0.54873

  Beta  occ. eigenvalues -- -256.54299 -30.28560 -26.11850 -26.11757 -26.11077
  Beta  occ. eigenvalues --  -19.32149 -19.31074 -19.23918 -19.23817 -14.57161
  Beta  occ. eigenvalues --  -14.51911 -14.50261 -14.49267 -14.49260 -14.48889
  Beta  occ. eigenvalues --  -10.41437 -10.40814 -10.40301 -10.37939 -10.36372
  Beta  occ. eigenvalues --  -10.35816 -10.35333 -10.35329 -10.35231 -10.35152
  Beta  occ. eigenvalues --  -10.35137 -10.34774 -10.34744 -10.34081 -10.33282
  Beta  occ. eigenvalues --  -10.33043 -10.32998 -10.32964 -10.32757 -10.32736
  Beta  occ. eigenvalues --  -10.32590 -10.32526 -10.32387 -10.32338 -10.32231
  Beta  occ. eigenvalues --  -10.32231 -10.31961 -10.31946 -10.31871 -10.31783
  Beta  occ. eigenvalues --  -10.31552 -10.31144 -10.30723 -10.30370 -10.30362
  Beta  occ. eigenvalues --  -10.30334 -10.30296 -10.30120  -3.58891  -2.34717
  Beta  occ. eigenvalues --   -2.34538  -2.31409  -1.24585  -1.24128  -1.19890
  Beta  occ. eigenvalues --   -1.12499  -1.11243  -1.10940  -1.10191  -1.09469
  Beta  occ. eigenvalues --   -1.09356  -1.04790  -0.94976  -0.94217  -0.93163
  Beta  occ. eigenvalues --   -0.92889  -0.92720  -0.92142  -0.91901  -0.91815
  Beta  occ. eigenvalues --   -0.88929  -0.87966  -0.87034  -0.85870  -0.85829
  Beta  occ. eigenvalues --   -0.84056  -0.83588  -0.82394  -0.82063  -0.81430
  Beta  occ. eigenvalues --   -0.80248  -0.78321  -0.77800  -0.77551  -0.76966
  Beta  occ. eigenvalues --   -0.76577  -0.74677  -0.73878  -0.73556  -0.72780
  Beta  occ. eigenvalues --   -0.72082  -0.69709  -0.69542  -0.68668  -0.67149
  Beta  occ. eigenvalues --   -0.66085  -0.65467  -0.64689  -0.63674  -0.62979
  Beta  occ. eigenvalues --   -0.62834  -0.60984  -0.60464  -0.60162  -0.59885
  Beta  occ. eigenvalues --   -0.59755  -0.59321  -0.58852  -0.57888  -0.57722
  Beta  occ. eigenvalues --   -0.57081  -0.56769  -0.56703  -0.55709  -0.55533
  Beta  occ. eigenvalues --   -0.55253  -0.55106  -0.54727  -0.54510  -0.54259
  Beta  occ. eigenvalues --   -0.54173  -0.53902  -0.53651  -0.53529  -0.53396
  Beta  occ. eigenvalues --   -0.53229  -0.53070  -0.52782  -0.52507  -0.51822
  Beta  occ. eigenvalues --   -0.51658  -0.51491  -0.51352  -0.51224  -0.50550
  Beta  occ. eigenvalues --   -0.50480  -0.50264  -0.49876  -0.49479  -0.49122
  Beta  occ. eigenvalues --   -0.48674  -0.48637  -0.48421  -0.47811  -0.47511
  Beta  occ. eigenvalues --   -0.47219  -0.47114  -0.47033  -0.46797  -0.46221
  Beta  occ. eigenvalues --   -0.46115  -0.45473  -0.45203  -0.44871  -0.43794
  Beta  occ. eigenvalues --   -0.43493  -0.43216  -0.42953  -0.42818  -0.40938
  Beta  occ. eigenvalues --   -0.40521  -0.39963  -0.39518  -0.39383  -0.39105
  Beta  occ. eigenvalues --   -0.38068  -0.37654  -0.35680  -0.35001  -0.34490
  Beta  occ. eigenvalues --   -0.33880  -0.33734  -0.32174  -0.30310  -0.29759
  Beta virt. eigenvalues --   -0.22529  -0.19919  -0.19306  -0.17280  -0.17045
  Beta virt. eigenvalues --   -0.16644  -0.13517  -0.12897  -0.10713  -0.09575
  Beta virt. eigenvalues --   -0.08645  -0.07201  -0.06915  -0.06807  -0.06061

 Mulliken charges and spin densities:
               1          2
     1  C   -0.354686   0.001155
     2  C    0.131791   0.007858
     3  N   -0.187618   0.003531
     4  C   -0.188259   0.001308
     5  C    0.030813   0.016399
     6  N   -0.031728   0.067028
     7  C   -0.479960   0.029875
     8  C   -0.494191   0.215195
     9  C   -0.506767   0.075944
    10  C   -0.468566  -0.088518
    11  C    0.331735   0.008924
    12  C    0.048106  -0.027517
    13  C   -0.058832   0.047273
    14  C    0.264882  -0.079100
    15  C   -0.391111  -0.003987
    16  C   -0.442880   0.001780
    17  C   -0.116608  -0.001395
    18  C    0.240029  -0.000024
    19  O   -0.326281  -0.000015
    20  O   -0.340431  -0.000098
    21  C    0.325752  -0.113493
    22  C   -0.163527   0.395380
    23  C   -0.001144  -0.065513
    24  C    0.342620   0.011141
    25  C   -0.320578  -0.025912
    26  C   -0.056537   0.433149
    27  C   -0.270740   0.981805
    28  C    0.331585  -0.009242
    29  C   -0.116142   0.057622
    30  C    0.031897  -0.017349
    31  C    0.294427   0.074815
    32  C   -0.395930  -0.004508
    33  C   -0.142255  -0.006488
    34  C   -0.288573   0.013461
    35  C    0.311958   0.077395
    36  C   -0.104124  -0.010797
    37  C    0.025745   0.054348
    38  C    0.296635   0.006354
    39  C   -0.384742  -0.000705
    40  C   -0.277547  -0.005438
    41  C   -0.294860   0.002688
    42  C    0.280339   0.000474
    43  O   -0.299872   0.000237
    44  O   -0.321698   0.000008
    45  N   -0.097601  -0.025393
    46  N   -0.134962   0.005673
    47  N   -0.115113  -0.067665
    48  N   -0.147598  -0.081294
    49  Fe   0.018447   3.051528
    50  H    0.365097   0.000001
    51  H    0.132674   0.000297
    52  H    0.118142   0.000055
    53  H    0.143924  -0.000669
    54  H    0.142145  -0.000195
    55  H    0.356251  -0.000004
    56  H    0.136620  -0.000022
    57  H    0.144455  -0.000185
    58  H    0.127955  -0.000008
    59  H    0.140707   0.001618
    60  H    0.137211  -0.001855
    61  H    0.157948   0.002000
    62  H    0.140768   0.001861
    63  H    0.146612  -0.000078
    64  H    0.130793  -0.009281
    65  H    0.163507   0.014729
    66  H    0.127761   0.012562
    67  H    0.129572   0.004123
    68  H    0.112066  -0.001041
    69  H    0.157151   0.000202
    70  H    0.157571   0.002614
    71  H    0.138137   0.001635
    72  H    0.096188   0.003317
    73  H    0.164247   0.001331
    74  H    0.252085   0.000955
    75  H    0.185984   0.000477
    76  H    0.158492   0.000051
    77  H    0.148146   0.000251
    78  H    0.159870   0.000276
    79  H    0.154439   0.000627
    80  H    0.156599  -0.000310
    81  H    0.130191  -0.000121
    82  H    0.142645   0.006666
    83  H    0.166932  -0.026224
    84  H    0.152555  -0.022090
    85  H    0.158889  -0.000747
    86  H    0.157408  -0.000555
    87  H    0.122960  -0.000162
 Sum of Mulliken charges =   1.00000   5.00000

 Dipole moment (field-independent basis, Debye):
    X=            -10.0528    Y=              4.0449    Z=              3.3567  Tot=             11.3440
 Quadrupole moment (field-independent basis, Debye-Ang):
   XX=           -223.7336   YY=           -201.8895   ZZ=           -246.5802
   XY=              8.7676   XZ=            -32.9153   YZ=              9.8705

 Summary of Natural Population Analysis:

                                       Natural Population
                Natural  -----------------------------------------------
    Atom  No    Charge         Core      Valence    Rydberg      Total
 -----------------------------------------------------------------------
      C    1   -0.31819      0.99969     2.31548    0.00302     3.31819
      C    2    0.07095      0.99961     1.92141    0.00803     2.92905
      N    3   -0.22516      0.99965     2.71543    0.01008     3.72516
      C    4   -0.03011      0.99954     2.02059    0.00998     3.03011
      C    5    0.09757      0.99968     1.89332    0.00942     2.90243
      N    6   -0.17256      0.99967     2.65376    0.01914     3.67256
      C    7   -0.07203      0.99956     2.06450    0.00798     3.07203
      C    8   -0.01255      0.99955     2.00543    0.00757     3.01255
      C    9   -0.08222      0.99956     2.07507    0.00759     3.08222
      C   10   -0.12102      0.99955     2.11396    0.00751     3.12102
      C   11    0.06799      0.99946     1.92234    0.01021     2.93201
      C   12   -0.01503      0.99941     2.00609    0.00953     3.01503
      C   13    0.02119      0.99944     1.97126    0.00811     2.97881
      C   14    0.03661      0.99949     1.95332    0.01058     2.96339
      C   15   -0.32191      0.99970     2.31862    0.00360     3.32191
      C   16   -0.20761      0.99965     2.20143    0.00652     3.20761
      C   17   -0.24610      0.99962     2.23816    0.00832     3.24610
      C   18    0.38092      0.99978     1.59985    0.01946     2.61908
      O   19   -0.33379      0.99978     3.31916    0.01486     4.33379
      O   20   -0.28987      0.99989     3.27728    0.01270     4.28987
      C   21    0.01691      0.99951     1.97281    0.01077     2.98309
      C   22    0.18498      0.99944     1.80754    0.00803     2.81502
      C   23   -0.07450      0.99944     2.06523    0.00983     3.07450
      C   24    0.10782      0.99952     1.88224    0.01042     2.89218
      C   25   -0.32368      0.99970     2.32072    0.00327     3.32368
      C   26    0.14246      0.99962     1.85005    0.00787     2.85754
      C   27    0.31961      0.99971     1.67625    0.00442     2.68039
      C   28    0.07565      0.99949     1.91451    0.01035     2.92435
      C   29    0.03768      0.99944     1.95469    0.00818     2.96232
      C   30   -0.05239      0.99946     2.04300    0.00994     3.05239
      C   31    0.11227      0.99952     1.87765    0.01056     2.88773
      C   32   -0.32181      0.99970     2.31862    0.00349     3.32181
      C   33   -0.10550      0.99964     2.09719    0.00867     3.10550
      C   34   -0.16397      0.99973     2.15882    0.00543     3.16397
      C   35    0.09367      0.99947     1.89608    0.01078     2.90633
      C   36   -0.00905      0.99941     2.00152    0.00812     3.00905
      C   37    0.02731      0.99943     1.96402    0.00924     2.97269
      C   38    0.06562      0.99949     1.92441    0.01049     2.93438
      C   39   -0.31777      0.99970     2.31438    0.00370     3.31777
      C   40   -0.21498      0.99967     2.20742    0.00789     3.21498
      C   41   -0.25472      0.99962     2.24669    0.00841     3.25472
      C   42    0.38490      0.99976     1.59669    0.01865     2.61510
      O   43   -0.33007      0.99976     3.31385    0.01646     4.33007
      O   44   -0.27844      0.99989     3.26623    0.01233     4.27844
      N   45   -0.21540      0.99963     2.69567    0.02009     3.71540
      N   46   -0.20291      0.99964     2.68249    0.02078     3.70291
      N   47   -0.23208      0.99963     2.71212    0.02033     3.73208
      N   48   -0.24068      0.99964     2.72076    0.02028     3.74068
     Fe   49    1.87779      8.99566     2.11130    0.01525    11.12221
      H   50    0.26190      0.00000     0.23690    0.00120     0.23810
      H   51    0.11719      0.00000     0.38212    0.00068     0.38281
      H   52    0.11050      0.00000     0.38876    0.00074     0.38950
      H   53    0.11375      0.00000     0.38543    0.00082     0.38625
      H   54    0.11058      0.00000     0.38860    0.00082     0.38942
      H   55    0.25842      0.00000     0.24047    0.00112     0.24158
      H   56    0.11346      0.00000     0.38581    0.00072     0.38654
      H   57    0.11057      0.00000     0.38868    0.00075     0.38943
      H   58    0.11793      0.00000     0.38134    0.00073     0.38207
      H   59    0.11618      0.00000     0.38304    0.00077     0.38382
      H   60    0.10960      0.00000     0.38904    0.00136     0.39040
      H   61    0.11684      0.00000     0.38246    0.00070     0.38316
      H   62    0.11344      0.00000     0.38586    0.00070     0.38656
      H   63    0.11458      0.00000     0.38474    0.00067     0.38542
      H   64    0.10638      0.00000     0.39235    0.00128     0.39362
      H   65    0.12529      0.00000     0.37409    0.00062     0.37471
      H   66    0.11934      0.00000     0.37997    0.00069     0.38066
      H   67    0.11292      0.00000     0.38650    0.00058     0.38708
      H   68    0.10520      0.00000     0.39348    0.00132     0.39480
      H   69    0.11973      0.00000     0.37945    0.00082     0.38027
      H   70    0.11609      0.00000     0.38321    0.00070     0.38391
      H   71    0.11295      0.00000     0.38634    0.00071     0.38705
      H   72    0.10937      0.00000     0.38947    0.00115     0.39063
      H   73    0.11760      0.00000     0.38166    0.00074     0.38240
      H   74    0.21504      0.00000     0.28414    0.00082     0.28496
      H   75    0.11673      0.00000     0.38233    0.00094     0.38327
      H   76    0.12159      0.00000     0.37795    0.00046     0.37841
      H   77    0.11486      0.00000     0.38452    0.00062     0.38514
      H   78    0.11705      0.00000     0.38232    0.00063     0.38295
      H   79    0.11605      0.00000     0.38324    0.00071     0.38395
      H   80    0.11659      0.00000     0.38269    0.00072     0.38341
      H   81    0.11028      0.00000     0.38914    0.00058     0.38972
      H   82    0.11693      0.00000     0.38247    0.00060     0.38307
      H   83    0.09451      0.00000     0.40480    0.00069     0.40549
      H   84    0.08975      0.00000     0.40949    0.00076     0.41025
      H   85    0.10521      0.00000     0.39413    0.00065     0.39479
      H   86    0.09752      0.00000     0.40168    0.00081     0.40248
      H   87    0.10223      0.00000     0.39690    0.00087     0.39777
 =======================================================================
   * Total *    3.00000     56.97657   122.48494    0.53848   180.00000

 Normal termination of Gaussian 16 at Wed Dec 28 15:51:40 2022.
