 Gaussian 16, Revision A.03,
 Gaussian 16:  ES64L-G16RevA.03 25-Dec-2016

 ----------------------------------------------------------------------
 # PBE1PBE/def2TZVP empiricaldispersion=GD3BJ scf=maxcycle=999 geom=che
 ck pop=nbo
 ----------------------------------------------------------------------

 ----------
 3ccx_III_D
 ----------
 Structure from the checkpoint file:  "3ccx_III_D.chk"
 Charge =  1 Multiplicity = 2

                         Standard orientation:
 ---------------------------------------------------------------------
 Center     Atomic      Atomic             Coordinates (Angstroms)
 Number     Number       Type             X           Y           Z
 ---------------------------------------------------------------------
      1          6           0       -1.539573   -1.961020    5.107070
      2          6           0       -1.583767   -1.033946    3.882742
      3          7           0       -2.015085    0.224340    3.801803
      4          6           0       -1.125232   -1.329653    2.598305
      5          6           0       -1.834548    0.699400    2.578373
      6          7           0       -1.290794   -0.260400    1.839520
      7          6           0        2.386895   -0.003326    0.038318
      8          6           0       -0.900885    3.492459   -0.293123
      9          6           0       -4.279118    0.234487   -0.875102
     10          6           0       -0.993776   -3.224622   -0.802009
     11          6           0        1.801623    1.280879   -0.021938
     12          6           0        2.521232    2.456089    0.011107
     13          6           0        1.564116    3.473653   -0.087278
     14          6           0        0.337716    2.838532   -0.177076
     15          6           0        1.772330    4.976248    0.027847
     16          6           0        4.038218    2.561357    0.213295
     17          6           0        4.857104    2.785202   -1.057417
     18          6           0        6.368767    2.862431   -0.844485
     19          8           0        6.858836    3.862685   -0.329724
     20          8           0        7.101866    1.931585   -1.174787
     21          6           0       -2.182613    2.944829   -0.362994
     22          6           0       -3.380885    3.669331   -0.380061
     23          6           0       -4.362615    2.699900   -0.564101
     24          6           0       -3.688251    1.476113   -0.613463
     25          6           0       -3.518326    5.180543   -0.234419
     26          6           0       -5.756514    2.807752   -0.641291
     27          6           0       -6.385666    4.013999   -0.305051
     28          6           0       -3.696443   -1.033460   -0.985267
     29          6           0       -4.394625   -2.194723   -1.299111
     30          6           0       -3.406517   -3.182582   -1.363891
     31          6           0       -2.214505   -2.556931   -0.994190
     32          6           0       -5.895519   -2.290644   -1.602777
     33          6           0       -3.468745   -4.556478   -1.642756
     34          6           0       -4.610010   -5.429277   -1.699237
     35          6           0        0.243879   -2.692641   -0.445585
     36          6           0        1.365715   -3.435992   -0.118070
     37          6           0        2.351945   -2.490731    0.122302
     38          6           0        1.757737   -1.248929   -0.064958
     39          6           0        1.486711   -4.956252    0.017465
     40          6           0        3.778404   -2.771710    0.565166
     41          6           0        4.770476   -2.654294   -0.573794
     42          6           0        6.244914   -2.739384   -0.204730
     43          8           0        7.054360   -2.319188   -1.010225
     44          8           0        6.609267   -3.206198    0.870378
     45          7           0        0.476940    1.523026   -0.121546
     46          7           0       -2.387309    1.630569   -0.390212
     47          7           0       -2.389387   -1.251151   -0.808585
     48          7           0        0.455367   -1.377017   -0.336816
     49         26           0       -1.002351    0.113984   -0.120574
     50          1           0        7.596780    4.307700   -0.752809
     51          1           0        4.653260    1.982482   -1.734903
     52          1           0        4.533776    3.699557   -1.509428
     53          1           0        4.230752    3.373697    0.882574
     54          1           0        4.377521    1.657625    0.674859
     55          1           0        7.239579   -2.817886   -1.809346
     56          1           0        4.560521   -3.433840   -1.276024
     57          1           0        4.605536   -1.715339   -1.059652
     58          1           0        3.827472   -3.762553    0.966068
     59          1           0        4.046695   -2.074337    1.331058
     60          1           0        3.447053   -0.026595    0.181231
     61          1           0        1.621217    5.431577   -0.928574
     62          1           0        1.073175    5.380460    0.729770
     63          1           0        2.769042    5.173542    0.363318
     64          1           0       -0.854643    4.560693   -0.333608
     65          1           0       -3.904877    5.592739   -1.143029
     66          1           0       -4.187452    5.401882    0.570678
     67          1           0       -2.559121    5.607738   -0.028677
     68          1           0       -5.340053    0.258247   -1.012046
     69          1           0       -6.095973   -3.202092   -2.126209
     70          1           0       -6.446525   -2.277443   -0.685651
     71          1           0       -6.190758   -1.459291   -2.208240
     72          1           0       -1.017358   -4.284207   -0.949063
     73          1           0       -0.710074   -2.263590    2.281594
     74          1           0       -2.418656    0.738197    4.558825
     75          1           0       -2.083544    1.684832    2.243970
     76          1           0       -0.857409   -2.764276    4.921779
     77          1           0       -1.214078   -1.406821    5.962533
     78          1           0       -2.516451   -2.357627    5.289585
     79          1           0        2.154883   -5.328965   -0.730554
     80          1           0        1.866703   -5.198698    0.987890
     81          1           0        0.523105   -5.403533   -0.110224
     82          1           0       -6.341332    1.969174   -0.957005
     83          1           0       -7.122637    4.433125   -0.957820
     84          1           0       -6.129060    4.515874    0.604440
     85          1           0       -4.553297   -6.349683   -2.241950
     86          1           0       -5.516009   -5.158369   -1.198562
     87          1           0       -2.527300   -5.023874   -1.843063
 ---------------------------------------------------------------------

 SCF Done:  E(UPBE1PBE) =  -3362.03573238     A.U. after  187 cycles

 Alpha virt. eigenvalues --    0.52167   0.52448   0.52783   0.52941   0.53191
 Alpha virt. eigenvalues --    0.53253   0.53737   0.53855   0.54142   0.54281
 Alpha virt. eigenvalues --    0.54427   0.54833   0.54953   0.55441   0.55590

  Beta  occ. eigenvalues -- -256.48209 -30.23459 -26.06747 -26.06319 -26.05774
  Beta  occ. eigenvalues --  -19.32339 -19.31274 -19.24125 -19.24027 -14.56863
  Beta  occ. eigenvalues --  -14.52336 -14.49896 -14.49738 -14.49544 -14.48632
  Beta  occ. eigenvalues --  -10.41648 -10.41025 -10.39898 -10.37733 -10.35722
  Beta  occ. eigenvalues --  -10.35709 -10.35585 -10.35549 -10.35542 -10.35393
  Beta  occ. eigenvalues --  -10.35121 -10.35105 -10.35090 -10.34705 -10.34541
  Beta  occ. eigenvalues --  -10.34397 -10.34315 -10.33350 -10.33135 -10.32896
  Beta  occ. eigenvalues --  -10.32800 -10.32688 -10.32680 -10.32607 -10.32394
  Beta  occ. eigenvalues --  -10.32380 -10.32321 -10.32066 -10.32015 -10.31711
  Beta  occ. eigenvalues --  -10.31138 -10.30973 -10.30746 -10.30654 -10.30620
  Beta  occ. eigenvalues --  -10.30559 -10.30542 -10.30381  -3.55957  -2.32606
  Beta  occ. eigenvalues --   -2.31142  -2.29397  -1.24778  -1.24332  -1.19688
  Beta  occ. eigenvalues --   -1.12477  -1.11552  -1.11343  -1.10466  -1.09676
  Beta  occ. eigenvalues --   -1.09561  -1.04626  -0.95677  -0.94244  -0.93566
  Beta  occ. eigenvalues --   -0.93246  -0.93080  -0.92840  -0.92504  -0.91702
  Beta  occ. eigenvalues --   -0.89245  -0.88284  -0.87357  -0.87178  -0.86103
  Beta  occ. eigenvalues --   -0.84240  -0.83404  -0.82470  -0.82163  -0.81655
  Beta  occ. eigenvalues --   -0.80476  -0.78613  -0.78101  -0.77518  -0.77378
  Beta  occ. eigenvalues --   -0.77058  -0.74452  -0.74097  -0.73781  -0.72989
  Beta  occ. eigenvalues --   -0.72205  -0.70376  -0.70312  -0.68398  -0.67452
  Beta  occ. eigenvalues --   -0.66331  -0.65598  -0.64471  -0.63766  -0.63323
  Beta  occ. eigenvalues --   -0.63135  -0.61093  -0.60761  -0.60249  -0.59934
  Beta  occ. eigenvalues --   -0.59725  -0.59722  -0.59082  -0.58027  -0.57928
  Beta  occ. eigenvalues --   -0.57249  -0.57197  -0.56804  -0.56226  -0.55845
  Beta  occ. eigenvalues --   -0.55604  -0.55348  -0.55066  -0.54654  -0.54552
  Beta  occ. eigenvalues --   -0.54296  -0.53911  -0.53832  -0.53550  -0.53480
  Beta  occ. eigenvalues --   -0.53276  -0.53078  -0.52701  -0.52321  -0.52037
  Beta  occ. eigenvalues --   -0.51851  -0.51750  -0.51644  -0.51431  -0.50956
  Beta  occ. eigenvalues --   -0.50815  -0.50767  -0.49983  -0.49770  -0.49362
  Beta  occ. eigenvalues --   -0.48772  -0.48698  -0.48447  -0.47933  -0.47553
  Beta  occ. eigenvalues --   -0.47440  -0.47249  -0.47051  -0.46773  -0.46358
  Beta  occ. eigenvalues --   -0.46177  -0.45529  -0.45260  -0.44800  -0.44643
  Beta  occ. eigenvalues --   -0.43423  -0.43256  -0.43048  -0.42812  -0.41247
  Beta  occ. eigenvalues --   -0.41132  -0.40901  -0.39779  -0.39589  -0.39404
  Beta  occ. eigenvalues --   -0.38963  -0.36102  -0.35704  -0.35295  -0.35172
  Beta  occ. eigenvalues --   -0.34208  -0.34123  -0.33507  -0.32455  -0.31587
  Beta  occ. eigenvalues --   -0.30995  -0.28994
  Beta virt. eigenvalues --   -0.19800  -0.19480  -0.15422  -0.14474  -0.13565
  Beta virt. eigenvalues --   -0.12055  -0.10190  -0.09485  -0.09207  -0.07399
  Beta virt. eigenvalues --   -0.07058  -0.06756  -0.05919  -0.04976  -0.04681

 Mulliken charges and spin densities:
               1          2
     1  C   -0.354978  -0.000005
     2  C    0.130230  -0.000086
     3  N   -0.188437   0.000302
     4  C   -0.190319   0.005240
     5  C    0.027602   0.017113
     6  N   -0.014121  -0.042714
     7  C   -0.448631  -0.194709
     8  C   -0.449033  -0.224776
     9  C   -0.458706  -0.183186
    10  C   -0.441604  -0.182284
    11  C    0.327853   0.060822
    12  C    0.044952   0.018018
    13  C   -0.060942   0.017183
    14  C    0.257999   0.065804
    15  C   -0.390301  -0.001374
    16  C   -0.442582  -0.003259
    17  C   -0.115889   0.001558
    18  C    0.240438   0.000095
    19  O   -0.326138   0.000014
    20  O   -0.340335   0.000139
    21  C    0.326793   0.089297
    22  C   -0.174399  -0.121252
    23  C    0.049725   0.101902
    24  C    0.318968   0.050980
    25  C   -0.315094   0.005387
    26  C   -0.155157  -0.268631
    27  C   -0.281991   0.372122
    28  C    0.320172   0.059267
    29  C   -0.116295  -0.010002
    30  C    0.030284   0.032075
    31  C    0.292790   0.051310
    32  C   -0.394559  -0.000009
    33  C   -0.143814  -0.039867
    34  C   -0.288818   0.062625
    35  C    0.306483   0.049135
    36  C   -0.109737   0.007965
    37  C    0.018879   0.002595
    38  C    0.289326   0.054911
    39  C   -0.383482  -0.001256
    40  C   -0.277803  -0.000880
    41  C   -0.294072  -0.000056
    42  C    0.280156   0.000140
    43  O   -0.299814   0.000028
    44  O   -0.320907  -0.000017
    45  N   -0.103099  -0.141388
    46  N   -0.114678  -0.163469
    47  N   -0.115564  -0.139372
    48  N   -0.133001  -0.127137
    49  Fe  -0.028994   1.713988
    50  H    0.365537   0.000006
    51  H    0.131596  -0.000154
    52  H    0.118936  -0.000095
    53  H    0.144940   0.000467
    54  H    0.140251  -0.000029
    55  H    0.356524   0.000000
    56  H    0.137429   0.000016
    57  H    0.141776   0.000124
    58  H    0.128454  -0.000120
    59  H    0.139982   0.000019
    60  H    0.142626   0.008641
    61  H    0.158689   0.000936
    62  H    0.140406   0.000568
    63  H    0.147276   0.000067
    64  H    0.138576   0.009652
    65  H    0.160702  -0.004828
    66  H    0.134207  -0.003123
    67  H    0.124186   0.000980
    68  H    0.128009   0.009001
    69  H    0.157887  -0.000047
    70  H    0.159316  -0.000230
    71  H    0.139560  -0.000001
    72  H    0.102368   0.008071
    73  H    0.159857  -0.000059
    74  H    0.251166  -0.000145
    75  H    0.183285  -0.000258
    76  H    0.157212   0.000002
    77  H    0.147801   0.000026
    78  H    0.159335  -0.000009
    79  H    0.155345   0.000483
    80  H    0.157734   0.000395
    81  H    0.127994  -0.000066
    82  H    0.128354   0.020943
    83  H    0.160744  -0.021663
    84  H    0.144486  -0.020400
    85  H    0.159277  -0.002960
    86  H    0.158190  -0.002754
    87  H    0.120633   0.002255
 Sum of Mulliken charges =   1.00000   1.00000

 Dipole moment (field-independent basis, Debye):
    X=             -8.3147    Y=              3.0625    Z=              3.1105  Tot=              9.3908
 Quadrupole moment (field-independent basis, Debye-Ang):
   XX=           -232.5004   YY=           -200.8034   ZZ=           -246.4657
   XY=             16.8277   XZ=            -33.0139   YZ=             11.0271

 Summary of Natural Population Analysis:

                                       Natural Population
                Natural  -----------------------------------------------
    Atom  No    Charge         Core      Valence    Rydberg      Total
 -----------------------------------------------------------------------
      C    1   -0.31835      0.99969     2.31563    0.00303     3.31835
      C    2    0.06549      0.99961     1.92678    0.00813     2.93451
      N    3   -0.22726      0.99965     2.71744    0.01017     3.72726
      C    4   -0.03061      0.99954     2.02089    0.01018     3.03061
      C    5    0.09540      0.99970     1.89526    0.00965     2.90460
      N    6   -0.21113      0.99968     2.69067    0.02078     3.71113
      C    7   -0.13761      0.99956     2.13000    0.00804     3.13761
      C    8   -0.15733      0.99956     2.15039    0.00738     3.15733
      C    9   -0.14259      0.99956     2.13554    0.00749     3.14259
      C   10   -0.13464      0.99955     2.12761    0.00747     3.13464
      C   11    0.08313      0.99946     1.90710    0.01031     2.91687
      C   12    0.00345      0.99941     1.98756    0.00958     2.99655
      C   13    0.00592      0.99944     1.98654    0.00810     2.99408
      C   14    0.08477      0.99948     1.90514    0.01061     2.91523
      C   15   -0.32129      0.99970     2.31795    0.00364     3.32129
      C   16   -0.20862      0.99966     2.20244    0.00653     3.20862
      C   17   -0.24518      0.99962     2.23724    0.00831     3.24518
      C   18    0.38090      0.99978     1.59987    0.01945     2.61910
      O   19   -0.33368      0.99978     3.31905    0.01485     4.33368
      O   20   -0.28966      0.99989     3.27707    0.01270     4.28966
      C   21    0.08586      0.99951     1.90355    0.01108     2.91414
      C   22   -0.04840      0.99946     2.04035    0.00859     3.04840
      C   23   -0.01338      0.99945     2.00352    0.01041     3.01338
      C   24    0.09703      0.99952     1.89258    0.01087     2.90297
      C   25   -0.31496      0.99969     2.31125    0.00402     3.31496
      C   26   -0.21502      0.99962     2.20536    0.01003     3.21502
      C   27    0.00228      0.99971     1.99218    0.00583     2.99772
      C   28    0.08330      0.99949     1.90685    0.01036     2.91670
      C   29    0.00791      0.99945     1.98435    0.00830     2.99209
      C   30   -0.03684      0.99946     2.02751    0.00987     3.03684
      C   31    0.09446      0.99952     1.89535    0.01067     2.90554
      C   32   -0.32091      0.99970     2.31762    0.00359     3.32091
      C   33   -0.11999      0.99964     2.11312    0.00723     3.11999
      C   34   -0.14204      0.99973     2.13686    0.00546     3.14204
      C   35    0.07282      0.99948     1.91660    0.01111     2.92718
      C   36   -0.00281      0.99941     1.99524    0.00815     3.00281
      C   37   -0.00373      0.99943     1.99498    0.00931     3.00373
      C   38    0.07706      0.99949     1.91274    0.01071     2.92294
      C   39   -0.31817      0.99970     2.31479    0.00368     3.31817
      C   40   -0.21344      0.99967     2.20584    0.00793     3.21344
      C   41   -0.25583      0.99962     2.24779    0.00841     3.25583
      C   42    0.38463      0.99976     1.59696    0.01865     2.61537
      O   43   -0.33018      0.99976     3.31395    0.01647     4.33018
      O   44   -0.27807      0.99989     3.26586    0.01233     4.27807
      N   45   -0.25833      0.99964     2.73949    0.01920     3.75833
      N   46   -0.27455      0.99965     2.75056    0.02434     3.77455
      N   47   -0.25253      0.99964     2.73348    0.01942     3.75253
      N   48   -0.26144      0.99966     2.73723    0.02455     3.76144
     Fe   49    1.14332      8.99576     2.84802    0.01290    11.85668
      H   50    0.26206      0.00000     0.23674    0.00119     0.23794
      H   51    0.11670      0.00000     0.38261    0.00069     0.38330
      H   52    0.11069      0.00000     0.38856    0.00074     0.38931
      H   53    0.11460      0.00000     0.38457    0.00083     0.38540
      H   54    0.10977      0.00000     0.38941    0.00082     0.39023
      H   55    0.25851      0.00000     0.24037    0.00112     0.24149
      H   56    0.11377      0.00000     0.38551    0.00072     0.38623
      H   57    0.10961      0.00000     0.38965    0.00075     0.39039
      H   58    0.11810      0.00000     0.38116    0.00074     0.38190
      H   59    0.11465      0.00000     0.38457    0.00078     0.38535
      H   60    0.11237      0.00000     0.38626    0.00138     0.38763
      H   61    0.11634      0.00000     0.38294    0.00072     0.38366
      H   62    0.11260      0.00000     0.38670    0.00070     0.38740
      H   63    0.11507      0.00000     0.38426    0.00067     0.38493
      H   64    0.11209      0.00000     0.38657    0.00134     0.38791
      H   65    0.11897      0.00000     0.38013    0.00091     0.38103
      H   66    0.11369      0.00000     0.38558    0.00072     0.38631
      H   67    0.10851      0.00000     0.39090    0.00059     0.39149
      H   68    0.11018      0.00000     0.38840    0.00142     0.38982
      H   69    0.12005      0.00000     0.37913    0.00082     0.37995
      H   70    0.11514      0.00000     0.38415    0.00072     0.38486
      H   71    0.11236      0.00000     0.38694    0.00070     0.38764
      H   72    0.11071      0.00000     0.38812    0.00117     0.38929
      H   73    0.11556      0.00000     0.38371    0.00073     0.38444
      H   74    0.21437      0.00000     0.28480    0.00083     0.28563
      H   75    0.11509      0.00000     0.38397    0.00094     0.38491
      H   76    0.12111      0.00000     0.37843    0.00046     0.37889
      H   77    0.11460      0.00000     0.38477    0.00063     0.38540
      H   78    0.11663      0.00000     0.38274    0.00063     0.38337
      H   79    0.11620      0.00000     0.38308    0.00072     0.38380
      H   80    0.11725      0.00000     0.38203    0.00072     0.38275
      H   81    0.10932      0.00000     0.39010    0.00058     0.39068
      H   82    0.11555      0.00000     0.38370    0.00076     0.38445
      H   83    0.09565      0.00000     0.40352    0.00084     0.40435
      H   84    0.08945      0.00000     0.40966    0.00089     0.41055
      H   85    0.10462      0.00000     0.39473    0.00065     0.39538
      H   86    0.09703      0.00000     0.40218    0.00079     0.40297
      H   87    0.10189      0.00000     0.39716    0.00094     0.39811
 =======================================================================
   * Total *    1.00000     56.97682   124.47202    0.55116   182.00000

 Normal termination of Gaussian 16 at Mon Sep  5 17:05:01 2022.
