 Gaussian 16, Revision A.03,
 Gaussian 16:  ES64L-G16RevA.03 25-Dec-2016

 ---------------------------------------------------------------------
 # polar def2tzvp empiricaldispersion=gd3bj int=grid=ultrafine pbe1pbe
 ---------------------------------------------------------------------

 ---------
 451c_II_S
 ---------
 Symbolic Z-matrix:
 Charge =  0 Multiplicity = 1

                         Standard orientation:
 ---------------------------------------------------------------------
 Center     Atomic      Atomic             Coordinates (Angstroms)
 Number     Number       Type             X           Y           Z
 ---------------------------------------------------------------------
      1          6           0        3.393295   -0.854867    4.988401
      2          6           0        2.363275   -0.508978    3.925814
      3          7           0        1.034173   -0.453374    4.181899
      4          6           0        2.548730   -0.333957    2.565861
      5          6           0        0.390107   -0.245561    3.003801
      6          7           0        1.318737   -0.164601    2.005665
      7          6           0       -0.804237    2.327292   -2.792125
      8          6           0        0.522934    1.585453   -2.992157
      9         16           0        0.588841   -0.071685   -2.252399
     10          6           0       -0.945281   -0.892485   -2.739703
     11          6           0       -2.464636   -0.039004    0.573976
     12          6           0        0.876162   -3.466805    0.035230
     13          6           0        4.205148   -0.072686   -0.803207
     14          6           0        0.997857    3.324169    0.362075
     15          6           0       -1.853709   -1.271821    0.468959
     16          6           0       -2.489721   -2.489576    0.592193
     17          6           0       -1.519140   -3.475070    0.489427
     18          6           0       -0.327823   -2.833874    0.251662
     19          6           0       -1.702937   -4.976351    0.582639
     20          6           0       -3.967911   -2.687218    0.761274
     21          6           0       -4.603178   -2.620754   -0.607907
     22          6           0       -6.104652   -2.808629   -0.504068
     23          8           0       -6.593533   -3.177315    0.560110
     24          8           0       -6.698363   -3.148107   -1.599201
     25          6           0        2.084675   -2.853297   -0.219407
     26          6           0        3.273456   -3.519626   -0.510320
     27          6           0        4.220326   -2.545216   -0.844828
     28          6           0        3.600102   -1.303616   -0.648485
     29          6           0        3.462952   -5.021208   -0.521973
     30          6           0        5.633203   -2.753981   -1.352955
     31          6           0        5.688020   -3.369498   -2.748270
     32          6           0        3.614044    1.161679   -0.580603
     33          6           0        4.272903    2.384609   -0.614192
     34          6           0        3.384640    3.334519   -0.118506
     35          6           0        2.173060    2.701405    0.020806
     36          6           0        5.732350    2.595123   -0.974208
     37          6           0        3.669916    4.780095    0.265985
     38          6           0        4.113733    5.634418   -0.916541
     39          6           0       -0.223163    2.708062    0.484248
     40          6           0       -1.420507    3.374793    0.722392
     41          6           0       -2.427300    2.418638    0.693964
     42          6           0       -1.810867    1.178847    0.534883
     43          6           0       -1.592616    4.866560    0.927591
     44          6           0       -3.911939    2.654871    0.827976
     45          6           0       -4.629756    2.643062   -0.512010
     46          6           0       -6.135750    2.779124   -0.295250
     47          8           0       -6.894364    2.290104   -1.136802
     48          8           0       -6.623440    3.662712    0.552568
     49          7           0       -0.538125   -1.490692    0.259041
     50          7           0        2.300544   -1.509329   -0.286124
     51          7           0        2.330468    1.371782   -0.194892
     52          7           0       -0.464508    1.361805    0.363168
     53         26           0        0.909356   -0.042011    0.078999
     54          1           0       -1.763205   -0.210477   -2.635950
     55          1           0       -0.872090   -1.209195   -3.759133
     56          1           0       -1.109041   -1.743854   -2.112604
     57          1           0       -0.669468    3.113354   -2.078793
     58          1           0       -1.124585    2.742921   -3.724610
     59          1           0       -1.544673    1.643206   -2.433402
     60          1           0        0.702093    1.492746   -4.042969
     61          1           0        1.306711    2.176152   -2.565931
     62          1           0        6.241528    3.047782   -0.149139
     63          1           0        6.184250    1.651374   -1.197867
     64          1           0        5.800092    3.234614   -1.829405
     65          1           0        5.225619   -0.070834   -1.124974
     66          1           0        2.562912   -5.496855   -0.192445
     67          1           0        3.693658   -5.343888   -1.515729
     68          1           0        4.266252   -5.284430    0.134018
     69          1           0        0.873560   -4.536307    0.067760
     70          1           0       -2.714403   -5.195672    0.854182
     71          1           0       -1.483388   -5.422079   -0.365002
     72          1           0       -1.040800   -5.371360    1.324557
     73          1           0       -4.367881   -1.914633    1.384200
     74          1           0       -4.157510   -3.643312    1.202677
     75          1           0       -4.395937   -1.667575   -1.047679
     76          1           0       -4.192507   -3.391793   -1.225764
     77          1           0       -7.612299   -2.894853   -1.748141
     78          1           0       -7.837832    2.461083   -1.089534
     79          1           0       -4.281471    3.459997   -1.108848
     80          1           0       -4.425214    1.721909   -1.016530
     81          1           0       -4.069573    3.604252    1.295657
     82          1           0       -4.328473    1.889910    1.449455
     83          1           0       -1.880250    5.056404    1.940570
     84          1           0       -0.668352    5.364114    0.720043
     85          1           0       -2.350754    5.232324    0.267027
     86          1           0       -3.527649   -0.024263    0.695167
     87          1           0        1.036798    4.377121    0.548292
     88          1           0        4.849851   -3.277349   -3.406967
     89          1           0        6.564623   -3.893226   -3.067919
     90          1           0        6.505240   -2.495488   -0.789365
     91          1           0        3.783256    6.648875   -0.997553
     92          1           0        4.755637    5.219442   -1.665309
     93          1           0        3.569396    5.157137    1.262295
     94          1           0        2.913945   -0.916826    5.943013
     95          1           0        3.844928   -1.796211    4.754308
     96          1           0        4.146208   -0.095090    5.016005
     97          1           0        3.485807   -0.332006    2.049349
     98          1           0        0.603325   -0.548463    5.079300
     99          1           0       -0.669075   -0.159584    2.878737
 ---------------------------------------------------------------------

 SCF Done:  E(RPBE1PBE) =  -3879.34196613     A.U. after   22 cycles

 The electronic state is 1-A.
 Alpha  occ. eigenvalues -- -256.30303 -89.01415 -30.07182 -25.89976 -25.89647
 Alpha  occ. eigenvalues --  -25.89616 -19.27979 -19.25308 -19.18567 -19.17275
 Alpha  occ. eigenvalues --  -14.45304 -14.39702 -14.35937 -14.35650 -14.35552
 Alpha  occ. eigenvalues --  -14.35453 -10.36119 -10.35237 -10.28200 -10.26277
 Alpha  occ. eigenvalues --  -10.26051 -10.25268 -10.24159 -10.23961 -10.23491
 Alpha  occ. eigenvalues --  -10.23403 -10.23402 -10.23329 -10.23167 -10.23150
 Alpha  occ. eigenvalues --  -10.23137 -10.23100 -10.23076 -10.23038 -10.22993
 Alpha  occ. eigenvalues --  -10.22937 -10.22717 -10.22677 -10.21945 -10.21714
 Alpha  occ. eigenvalues --  -10.21592 -10.21564 -10.21491 -10.21437 -10.21431
 Alpha  occ. eigenvalues --  -10.21405 -10.21282 -10.21211 -10.21209 -10.20968
 Alpha  occ. eigenvalues --  -10.20890 -10.20846 -10.20763 -10.20639 -10.20447
 Alpha  occ. eigenvalues --  -10.20158 -10.19677  -7.99190  -5.92867  -5.92548
 Alpha  occ. eigenvalues --   -5.92004  -3.41658  -2.17640  -2.16939  -2.16905
 Alpha  occ. eigenvalues --   -1.18558  -1.15404  -1.05571  -1.03606  -0.98966
 Alpha  occ. eigenvalues --   -0.98342  -0.97782  -0.96907  -0.96339  -0.91056
 Alpha  occ. eigenvalues --   -0.84301  -0.83756  -0.83303  -0.82815  -0.81468
 Alpha  occ. eigenvalues --   -0.81119  -0.80832  -0.80509  -0.80363  -0.79120
 Alpha  occ. eigenvalues --   -0.78577  -0.76399  -0.75747  -0.75430  -0.74637
 Alpha  occ. eigenvalues --   -0.73880  -0.73074  -0.72061  -0.71379  -0.70305
 Alpha  occ. eigenvalues --   -0.70079  -0.69408  -0.69141  -0.67578  -0.66353
 Alpha  occ. eigenvalues --   -0.65945  -0.65325  -0.64445  -0.63557  -0.61995
 Alpha  occ. eigenvalues --   -0.61894  -0.61297  -0.59390  -0.58937  -0.58015
 Alpha  occ. eigenvalues --   -0.56536  -0.55925  -0.55114  -0.54796  -0.53373
 Alpha  occ. eigenvalues --   -0.52780  -0.52109  -0.51848  -0.51645  -0.51134
 Alpha  occ. eigenvalues --   -0.51076  -0.50589  -0.50332  -0.48977  -0.48731
 Alpha  occ. eigenvalues --   -0.48318  -0.48212  -0.47884  -0.47685  -0.47628
 Alpha  occ. eigenvalues --   -0.46826  -0.46411  -0.45642  -0.45458  -0.45277
 Alpha  occ. eigenvalues --   -0.44961  -0.44813  -0.44293  -0.44187  -0.43706
 Alpha  occ. eigenvalues --   -0.43572  -0.43398  -0.43229  -0.42995  -0.42939
 Alpha  occ. eigenvalues --   -0.42870  -0.42587  -0.42294  -0.42186  -0.42006
 Alpha  occ. eigenvalues --   -0.41487  -0.41287  -0.40973  -0.40780  -0.40669
 Alpha  occ. eigenvalues --   -0.40535  -0.40207  -0.39738  -0.39587  -0.39366
 Alpha  occ. eigenvalues --   -0.39286  -0.38945  -0.38763  -0.38733  -0.38031
 Alpha  occ. eigenvalues --   -0.37944  -0.37783  -0.37638  -0.37191  -0.36745
 Alpha  occ. eigenvalues --   -0.36632  -0.36420  -0.35939  -0.35784  -0.35597
 Alpha  occ. eigenvalues --   -0.35164  -0.34918  -0.34872  -0.33237  -0.32940
 Alpha  occ. eigenvalues --   -0.32719  -0.32334  -0.31667  -0.30920  -0.30730
 Alpha  occ. eigenvalues --   -0.29485  -0.29131  -0.28565  -0.28294  -0.27995
 Alpha  occ. eigenvalues --   -0.27304  -0.25684  -0.25463  -0.24272  -0.24136
 Alpha  occ. eigenvalues --   -0.22824  -0.22645  -0.22227  -0.21474  -0.19555
 Alpha  occ. eigenvalues --   -0.19506  -0.18403  -0.17819  -0.17580
 Alpha virt. eigenvalues --   -0.07297  -0.07041  -0.04860  -0.03365  -0.01977
 Alpha virt. eigenvalues --   -0.01156  -0.00880   0.01671   0.02021   0.02302
 Alpha virt. eigenvalues --    0.03529   0.03722   0.03816   0.04440   0.04649

 Mulliken charges:
               1
     1  C   -0.359074
     2  C    0.123448
     3  N   -0.212425
     4  C   -0.191603
     5  C   -0.022621
     6  N    0.095636
     7  C   -0.349201
     8  C   -0.139405
     9  S    0.013185
    10  C   -0.356404
    11  C   -0.659908
    12  C   -0.521483
    13  C   -0.524803
    14  C   -0.531813
    15  C    0.224806
    16  C    0.123555
    17  C   -0.085748
    18  C    0.237214
    19  C   -0.396934
    20  C   -0.356998
    21  C   -0.202285
    22  C    0.272437
    23  O   -0.329469
    24  O   -0.360989
    25  C    0.329994
    26  C   -0.051372
    27  C   -0.045874
    28  C    0.235406
    29  C   -0.352731
    30  C   -0.270273
    31  C   -0.306797
    32  C    0.327949
    33  C   -0.057617
    34  C    0.033374
    35  C    0.201066
    36  C   -0.363746
    37  C   -0.272454
    38  C   -0.282203
    39  C    0.288604
    40  C   -0.056615
    41  C    0.094389
    42  C    0.215654
    43  C   -0.404987
    44  C   -0.403774
    45  C   -0.121373
    46  C    0.253403
    47  O   -0.296503
    48  O   -0.439760
    49  N   -0.036532
    50  N   -0.000735
    51  N    0.019413
    52  N    0.095007
    53  Fe  -0.409163
    54  H    0.116770
    55  H    0.147235
    56  H    0.162184
    57  H    0.127508
    58  H    0.118175
    59  H    0.089315
    60  H    0.125848
    61  H    0.141930
    62  H    0.136302
    63  H    0.121411
    64  H    0.122785
    65  H    0.093698
    66  H    0.114619
    67  H    0.137818
    68  H    0.127466
    69  H    0.105931
    70  H    0.127599
    71  H    0.137241
    72  H    0.135860
    73  H    0.123577
    74  H    0.129078
    75  H    0.126147
    76  H    0.142634
    77  H    0.337636
    78  H    0.348739
    79  H    0.138603
    80  H    0.122476
    81  H    0.144435
    82  H    0.128004
    83  H    0.145137
    84  H    0.122865
    85  H    0.133857
    86  H    0.114180
    87  H    0.103521
    88  H    0.152312
    89  H    0.131945
    90  H    0.139583
    91  H    0.140676
    92  H    0.140719
    93  H    0.153235
    94  H    0.114209
    95  H    0.147879
    96  H    0.146876
    97  H    0.158042
    98  H    0.234932
    99  H    0.178140
 Sum of Mulliken charges =  -0.00000

 Dipole moment (field-independent basis, Debye):
    X=              0.3736    Y=             -0.6196    Z=              0.3660  Tot=              0.8108
 Quadrupole moment (field-independent basis, Debye-Ang):
   XX=           -315.0016   YY=           -329.4868   ZZ=           -291.3053
   XY=              4.3315   XZ=             37.3402   YZ=             -6.6029

  Exact polarizability: 812.060   4.552 751.876 -55.382   8.211 452.340
 Approx polarizability:1406.109  16.2391395.849-161.865  25.644 752.942

 Normal termination of Gaussian 16 at Fri Feb  3 19:13:46 2023.
