 Gaussian 16, Revision A.03,
 Gaussian 16:  ES64L-G16RevA.03 25-Dec-2016

 ----------------------------------------------------------------------
 # PBE1PBE/def2TZVP empiricaldispersion=GD3BJ scf=maxcycle=999 geom=che
 ck pop=nbo
 ----------------------------------------------------------------------

 ----------
 4mu8_III_D
 ----------
 Structure from the checkpoint file:  "4mu8_III_D.chk"
 Charge =  1 Multiplicity = 2

                         Standard orientation:
 ---------------------------------------------------------------------
 Center     Atomic      Atomic             Coordinates (Angstroms)
 Number     Number       Type             X           Y           Z
 ---------------------------------------------------------------------
      1          6           0        2.776620   -1.125957    4.750931
      2          6           0        1.912829   -0.737753    3.594083
      3          7           0        0.536446   -0.753147    3.647472
      4          6           0        2.233614   -0.408574    2.314730
      5          6           0        0.044378   -0.451717    2.454421
      6          7           0        1.052610   -0.224535    1.630805
      7          1           0        3.767406   -1.331506    4.403092
      8          1           0        2.374372   -2.000098    5.218877
      9          1           0        0.069108   -0.955344    4.340580
     10          1           0        3.091638   -0.326361    1.965602
     11          1           0       -0.858295   -0.369969    2.244213
     12         26           0        0.836145    0.052309   -0.374355
     13          6           0       -2.600453   -0.145327   -0.323929
     14          6           0        1.042185   -3.392417   -0.507135
     15          6           0        4.259652    0.299134   -0.896191
     16          6           0        0.691990    3.372252    0.408953
     17          7           0       -0.458485   -1.536031   -0.453179
     18          6           0       -1.856131   -1.341623   -0.491846
     19          6           0       -2.436676   -2.605159   -0.705359
     20          6           0       -1.415452   -3.521177   -0.655497
     21          6           0       -0.174425   -2.830778   -0.578315
     22          6           0       -1.529160   -5.045038   -0.868816
     23          6           0       -3.947566   -2.910917   -0.745828
     24          6           0       -4.504387   -3.020962    0.653917
     25          6           0       -5.960441   -3.455007    0.690880
     26          8           0       -6.595235   -3.612457   -0.383848
     27          8           0       -6.435132   -3.643951    1.829854
     28          7           0        2.475380   -1.397317   -0.448366
     29          6           0        2.268915   -2.724588   -0.540981
     30          6           0        3.533885   -3.258879   -0.639656
     31          6           0        4.486849   -2.205743   -0.851203
     32          6           0        3.717990   -0.994780   -0.846877
     33          6           0        3.827007   -4.667654   -0.526186
     34          6           0        5.856621   -2.266395   -1.230466
     35          6           0        6.243337   -3.057289   -2.343338
     36          7           0        2.303721    1.564461   -0.288214
     37          6           0        3.591065    1.454705   -0.578278
     38          6           0        4.165880    2.738819   -0.375099
     39          6           0        3.144884    3.594761    0.019139
     40          6           0        1.949419    2.851112    0.088388
     41          6           0        5.550084    3.008445   -0.450421
     42          6           0        3.218842    4.962330    0.460999
     43          6           0        3.899085    5.976141   -0.311065
     44          7           0       -0.701619    1.359982    0.134983
     45          6           0       -0.521877    2.682717    0.336717
     46          6           0       -1.785119    3.253672    0.588134
     47          6           0       -2.748217    2.254876    0.343462
     48          6           0       -2.027383    1.089188   -0.032166
     49          6           0       -2.029220    4.620727    0.983218
     50          6           0       -4.223614    2.453961    0.320344
     51          6           0       -4.612649    2.978818   -1.066036
     52          6           0       -6.053247    3.435773   -1.243915
     53          8           0       -6.864059    3.489633   -0.280313
     54          8           0       -6.373681    3.850772   -2.407014
     55          8           0        0.688932    0.226273   -2.352285
     56          1           0        2.806297   -0.324105    5.458782
     57          1           0        0.360646   -0.670594   -2.255032
     58          1           0        0.268428    0.793268   -1.701674
     59          1           0        5.279054    0.392359   -1.207685
     60          1           0        1.076196   -4.457926   -0.415303
     61          1           0       -3.664254   -0.195076   -0.427624
     62          1           0        0.655743    4.389452    0.738938
     63          1           0        5.920639    2.706766   -1.407803
     64          1           0        5.716959    4.056975   -0.317611
     65          1           0        6.061421    2.465881    0.317080
     66          1           0        3.577079   -5.005845    0.457716
     67          1           0        3.252005   -5.210773   -1.246807
     68          1           0        4.869229   -4.830668   -0.705353
     69          1           0       -0.804387   -5.359213   -1.590548
     70          1           0       -1.351273   -5.549187    0.058055
     71          1           0       -2.510677   -5.283500   -1.221890
     72          1           0       -2.500977    4.635654    1.943489
     73          1           0       -1.099907    5.148634    1.034137
     74          1           0       -2.667679    5.091028    0.264826
     75          1           0       -4.716799    1.522637    0.505557
     76          1           0       -4.503830    3.166240    1.068032
     77          1           0       -3.973651    3.805428   -1.296899
     78          1           0       -4.422676    2.202680   -1.777668
     79          1           0       -6.536066    3.221285   -3.113397
     80          1           0       -3.920867   -3.732687    1.199676
     81          1           0       -4.418882   -2.067764    1.132459
     82          1           0       -4.106911   -3.834273   -1.262474
     83          1           0       -4.452936   -2.123977   -1.265662
     84          1           0       -6.705437   -4.492287   -0.751754
     85          1           0        3.561420    5.938222   -1.325680
     86          1           0        3.685615    6.940662    0.100067
     87          1           0        4.954098    5.800502   -0.279475
     88          1           0        2.757296    5.235693    1.386822
     89          1           0        5.384316   -3.554088   -2.743555
     90          1           0        6.674407   -2.429178   -3.094706
     91          1           0        6.962893   -3.784980   -2.030919
     92          1           0        6.591800   -1.718231   -0.679170
 ---------------------------------------------------------------------

 SCF Done:  E(UPBE1PBE) =  -3439.49517105     A.U. after  127 cycles

 Alpha virt. eigenvalues --    0.65468   0.65683   0.65978   0.66312   0.66758
 Alpha virt. eigenvalues --    0.67125   0.67359   0.67599   0.67958   0.68409
 Alpha virt. eigenvalues --    0.68822   0.68884   0.69229   0.69669   0.69968

  Beta  occ. eigenvalues -- -256.42714 -30.19231 -26.02025 -26.01814 -26.01665
  Beta  occ. eigenvalues --  -19.32599 -19.31498 -19.31140 -19.25162 -19.25086
  Beta  occ. eigenvalues --  -14.52411 -14.48656 -14.48114 -14.47766 -14.47337
  Beta  occ. eigenvalues --  -14.46851 -10.42430 -10.42309 -10.40585 -10.37144
  Beta  occ. eigenvalues --  -10.36102 -10.36015 -10.35755 -10.35571 -10.35314
  Beta  occ. eigenvalues --  -10.35296 -10.35197 -10.35037 -10.34769 -10.34750
  Beta  occ. eigenvalues --  -10.34502 -10.33740 -10.33529 -10.33133 -10.33114
  Beta  occ. eigenvalues --  -10.32696 -10.32329 -10.32019 -10.31546 -10.31456
  Beta  occ. eigenvalues --  -10.31428 -10.31362 -10.31339 -10.31246 -10.31187
  Beta  occ. eigenvalues --  -10.30911 -10.30754 -10.30728 -10.30576 -10.30374
  Beta  occ. eigenvalues --  -10.30231 -10.29053 -10.28921 -10.28534  -3.54022
  Beta  occ. eigenvalues --   -2.30165  -2.29339  -2.29147  -1.23291  -1.21653
  Beta  occ. eigenvalues --   -1.16361  -1.16185  -1.10138  -1.09754  -1.08745
  Beta  occ. eigenvalues --   -1.08665  -1.08271  -1.07654  -1.01604  -0.97618
  Beta  occ. eigenvalues --   -0.95035  -0.93209  -0.92849  -0.92536  -0.92010
  Beta  occ. eigenvalues --   -0.91654  -0.90989  -0.90791  -0.88561  -0.87798
  Beta  occ. eigenvalues --   -0.87036  -0.86477  -0.85308  -0.83087  -0.82327
  Beta  occ. eigenvalues --   -0.81655  -0.81316  -0.79736  -0.77589  -0.77522
  Beta  occ. eigenvalues --   -0.77040  -0.76745  -0.76354  -0.76074  -0.73928
  Beta  occ. eigenvalues --   -0.73710  -0.72512  -0.71443  -0.70295  -0.69875
  Beta  occ. eigenvalues --   -0.68003  -0.67720  -0.67356  -0.65760  -0.64748
  Beta  occ. eigenvalues --   -0.64532  -0.63223  -0.62954  -0.62721  -0.61504
  Beta  occ. eigenvalues --   -0.60652  -0.60489  -0.59479  -0.59207  -0.58671
  Beta  occ. eigenvalues --   -0.58290  -0.58017  -0.57635  -0.57576  -0.57171
  Beta  occ. eigenvalues --   -0.56638  -0.56387  -0.56206  -0.56016  -0.55776
  Beta  occ. eigenvalues --   -0.55319  -0.55062  -0.54900  -0.54534  -0.54020
  Beta  occ. eigenvalues --   -0.53952  -0.53512  -0.53164  -0.52953  -0.52880
  Beta  occ. eigenvalues --   -0.52723  -0.52449  -0.52152  -0.52014  -0.51799
  Beta  occ. eigenvalues --   -0.51704  -0.51565  -0.51105  -0.50880  -0.50524
  Beta  occ. eigenvalues --   -0.50390  -0.50242  -0.49896  -0.49276  -0.49205
  Beta  occ. eigenvalues --   -0.49108  -0.48313  -0.48106  -0.47761  -0.47699
  Beta  occ. eigenvalues --   -0.47117  -0.46869  -0.46838  -0.46107  -0.46061
  Beta  occ. eigenvalues --   -0.45433  -0.45047  -0.44239  -0.44118  -0.43608
  Beta  occ. eigenvalues --   -0.42452  -0.41970  -0.41716  -0.41261  -0.40811
  Beta  occ. eigenvalues --   -0.40459  -0.40195  -0.39929  -0.39192  -0.39022
  Beta  occ. eigenvalues --   -0.38488  -0.35683  -0.35471  -0.34743  -0.34411
  Beta  occ. eigenvalues --   -0.33885  -0.33474  -0.32780  -0.31963  -0.31234
  Beta  occ. eigenvalues --   -0.30153  -0.29788  -0.29235
  Beta virt. eigenvalues --   -0.24441  -0.18571  -0.18014  -0.14099  -0.11174
  Beta virt. eigenvalues --   -0.08711  -0.08567  -0.07934  -0.07691  -0.07197
  Beta virt. eigenvalues --   -0.06604  -0.05718  -0.05435  -0.04786  -0.04648

 Mulliken charges and spin densities:
               1          2
     1  C   -0.366116  -0.000273
     2  C    0.217360   0.000840
     3  N   -0.171920   0.000123
     4  C   -0.272433  -0.001486
     5  C    0.021897  -0.000434
     6  N    0.051432   0.002168
     7  H    0.142641   0.000022
     8  H    0.141858  -0.000028
     9  H    0.171643   0.000165
    10  H    0.145754   0.000302
    11  H    0.182646  -0.000056
    12  Fe  -0.201311   0.085736
    13  C   -0.552403  -0.024792
    14  C   -0.486212  -0.028745
    15  C   -0.497980   0.070340
    16  C   -0.482103   0.026724
    17  N   -0.122653  -0.017430
    18  C    0.250717   0.018267
    19  C    0.058391   0.001442
    20  C   -0.074210   0.002608
    21  C    0.201182   0.016982
    22  C   -0.385533  -0.000331
    23  C   -0.268026  -0.000294
    24  C   -0.238848   0.000189
    25  C    0.292853   0.000063
    26  O   -0.356396   0.000004
    27  O   -0.317957   0.000081
    28  N   -0.144169   0.065980
    29  C    0.268269   0.012576
    30  C   -0.007152   0.022454
    31  C   -0.059273   0.081106
    32  C    0.273600  -0.047075
    33  C   -0.381078  -0.002416
    34  C   -0.071737  -0.175234
    35  C   -0.344855   0.012141
    36  N   -0.073480   0.033118
    37  C    0.232414  -0.052317
    38  C   -0.060248   0.270981
    39  C    0.038730  -0.210313
    40  C    0.238925  -0.011059
    41  C   -0.355374  -0.010074
    42  C   -0.239564   0.848865
    43  C   -0.311196  -0.061328
    44  N   -0.116816   0.005502
    45  C    0.357963  -0.021472
    46  C   -0.079635   0.029512
    47  C   -0.019721  -0.029277
    48  C    0.287226   0.018468
    49  C   -0.373417  -0.001316
    50  C   -0.204630   0.002034
    51  C   -0.290332  -0.001477
    52  C    0.321365  -0.000304
    53  O   -0.328705   0.000001
    54  O   -0.353057  -0.000140
    55  O   -0.400848   0.002881
    56  H    0.156634   0.000084
    57  H    0.352402  -0.001276
    58  H    0.334900  -0.001285
    59  H    0.136924  -0.003986
    60  H    0.162653   0.001272
    61  H    0.142313   0.001069
    62  H    0.112814   0.005347
    63  H    0.136766   0.011951
    64  H    0.112807  -0.001781
    65  H    0.142956   0.014236
    66  H    0.159055   0.001748
    67  H    0.159792   0.001941
    68  H    0.141159  -0.000071
    69  H    0.142811   0.000076
    70  H    0.151167   0.000230
    71  H    0.132106  -0.000047
    72  H    0.157063   0.001473
    73  H    0.125523   0.000120
    74  H    0.140326   0.001440
    75  H    0.118748  -0.000459
    76  H    0.139441  -0.000346
    77  H    0.145895   0.000027
    78  H    0.129435   0.000117
    79  H    0.352172  -0.000003
    80  H    0.141881  -0.000015
    81  H    0.133990   0.000008
    82  H    0.100655   0.000005
    83  H    0.131096   0.000007
    84  H    0.362227   0.000003
    85  H    0.146120   0.032529
    86  H    0.136891   0.001451
    87  H    0.128112   0.051544
    88  H    0.147420  -0.044373
    89  H    0.165801  -0.000036
    90  H    0.185986  -0.007116
    91  H    0.165938  -0.010290
    92  H    0.180547   0.010404
 Sum of Mulliken charges =   1.00000   1.00000

 Dipole moment (field-independent basis, Debye):
    X=             14.1351    Y=             -6.5856    Z=             -1.9843  Tot=             15.7196
 Quadrupole moment (field-independent basis, Debye-Ang):
   XX=           -223.7281   YY=           -220.7362   ZZ=           -259.3679
   XY=             -2.5063   XZ=             24.9813   YZ=             15.5041

 Summary of Natural Population Analysis:

                                       Natural Population
                Natural  -----------------------------------------------
    Atom  No    Charge         Core      Valence    Rydberg      Total
 -----------------------------------------------------------------------
      C    1   -0.32236      0.99969     2.31931    0.00336     3.32236
      C    2    0.06300      0.99961     1.92983    0.00756     2.93700
      N    3   -0.21687      0.99970     2.70782    0.00935     3.71687
      C    4   -0.02848      0.99946     2.01998    0.00904     3.02848
      C    5    0.10654      0.99964     1.88542    0.00840     2.89346
      N    6   -0.16130      0.99971     2.63881    0.02278     3.66130
      H    7    0.11746      0.00000     0.38205    0.00049     0.38254
      H    8    0.11278      0.00000     0.38653    0.00069     0.38722
      H    9    0.19096      0.00000     0.30815    0.00088     0.30904
      H   10    0.09646      0.00000     0.40265    0.00089     0.40354
      H   11    0.09509      0.00000     0.40387    0.00104     0.40491
     Fe   12    0.13590      8.99594     3.84809    0.02007    12.86410
      C   13   -0.12746      0.99951     2.11979    0.00816     3.12746
      C   14   -0.11509      0.99947     2.10717    0.00845     3.11509
      C   15   -0.08736      0.99949     2.07989    0.00798     3.08736
      C   16   -0.09890      0.99951     2.09203    0.00736     3.09890
      N   17   -0.22019      0.99967     2.69748    0.02305     3.72019
      C   18    0.09011      0.99948     1.90014    0.01026     2.90989
      C   19   -0.01387      0.99940     2.00458    0.00989     3.01387
      C   20    0.00519      0.99945     1.98664    0.00872     2.99481
      C   21    0.07175      0.99948     1.91763    0.01114     2.92825
      C   22   -0.32127      0.99970     2.31811    0.00346     3.32127
      C   23   -0.21273      0.99968     2.20579    0.00726     3.21273
      C   24   -0.25463      0.99963     2.24617    0.00883     3.25463
      C   25    0.38297      0.99976     1.59946    0.01782     2.61703
      O   26   -0.34412      0.99980     3.33006    0.01426     4.34412
      O   27   -0.27162      0.99989     3.25992    0.01180     4.27162
      N   28   -0.14619      0.99966     2.62285    0.02368     3.64619
      C   29    0.06168      0.99947     1.92790    0.01095     2.93832
      C   30    0.04556      0.99951     1.94582    0.00912     2.95444
      C   31   -0.03423      0.99951     2.02387    0.01085     3.03423
      C   32    0.06832      0.99952     1.92153    0.01063     2.93168
      C   33   -0.32928      0.99968     2.32236    0.00724     3.32928
      C   34   -0.01932      0.99965     2.01101    0.00867     3.01932
      C   35   -0.34769      0.99968     2.33988    0.00813     3.34769
      N   36   -0.17584      0.99966     2.65319    0.02299     3.67584
      C   37    0.06102      0.99951     1.92876    0.01071     2.93898
      C   38    0.12175      0.99951     1.87035    0.00839     2.87825
      C   39   -0.13555      0.99949     2.12605    0.01001     3.13555
      C   40    0.10252      0.99950     1.88820    0.00978     2.89748
      C   41   -0.32733      0.99966     2.32051    0.00716     3.32733
      C   42    0.35581      0.99967     1.63737    0.00714     2.64419
      C   43   -0.35821      0.99971     2.35192    0.00658     3.35821
      N   44   -0.20697      0.99965     2.68449    0.02284     3.70697
      C   45    0.07340      0.99950     1.91615    0.01095     2.92660
      C   46    0.01219      0.99952     1.97966    0.00864     2.98781
      C   47   -0.02189      0.99951     2.01323    0.00915     3.02189
      C   48    0.08768      0.99950     1.90232    0.01050     2.91232
      C   49   -0.32295      0.99968     2.31624    0.00704     3.32295
      C   50   -0.21538      0.99966     2.20796    0.00776     3.21538
      C   51   -0.25232      0.99962     2.24441    0.00828     3.25232
      C   52    0.38244      0.99976     1.60108    0.01672     2.61756
      O   53   -0.27270      0.99990     3.26140    0.01140     4.27270
      O   54   -0.34154      0.99981     3.32719    0.01454     4.34154
      O   55   -0.38944      0.99992     3.37371    0.01581     4.38944
      H   56    0.11567      0.00000     0.38363    0.00071     0.38433
      H   57    0.25251      0.00000     0.24569    0.00180     0.24749
      H   58    0.24549      0.00000     0.25198    0.00253     0.25451
      H   59    0.11033      0.00000     0.38855    0.00112     0.38967
      H   60    0.11503      0.00000     0.38392    0.00106     0.38497
      H   61    0.11566      0.00000     0.38320    0.00114     0.38434
      H   62    0.11423      0.00000     0.38436    0.00140     0.38577
      H   63    0.11885      0.00000     0.38052    0.00063     0.38115
      H   64    0.11465      0.00000     0.38468    0.00067     0.38535
      H   65    0.11978      0.00000     0.37950    0.00072     0.38022
      H   66    0.12134      0.00000     0.37792    0.00074     0.37866
      H   67    0.12214      0.00000     0.37719    0.00067     0.37786
      H   68    0.11114      0.00000     0.38823    0.00062     0.38886
      H   69    0.11229      0.00000     0.38700    0.00070     0.38771
      H   70    0.11298      0.00000     0.38630    0.00072     0.38702
      H   71    0.11145      0.00000     0.38780    0.00074     0.38855
      H   72    0.12040      0.00000     0.37887    0.00074     0.37960
      H   73    0.11000      0.00000     0.38955    0.00045     0.39000
      H   74    0.11656      0.00000     0.38265    0.00080     0.38344
      H   75    0.10961      0.00000     0.38945    0.00094     0.39039
      H   76    0.12216      0.00000     0.37708    0.00076     0.37784
      H   77    0.11772      0.00000     0.38154    0.00074     0.38228
      H   78    0.10965      0.00000     0.38959    0.00075     0.39035
      H   79    0.25668      0.00000     0.24221    0.00111     0.24332
      H   80    0.12007      0.00000     0.37931    0.00062     0.37993
      H   81    0.11801      0.00000     0.38137    0.00063     0.38199
      H   82    0.10840      0.00000     0.39073    0.00087     0.39160
      H   83    0.11048      0.00000     0.38877    0.00075     0.38952
      H   84    0.26160      0.00000     0.23723    0.00118     0.23840
      H   85    0.13134      0.00000     0.36816    0.00049     0.36866
      H   86    0.11624      0.00000     0.38332    0.00044     0.38376
      H   87    0.13487      0.00000     0.36451    0.00063     0.36513
      H   88    0.08420      0.00000     0.41501    0.00079     0.41580
      H   89    0.11900      0.00000     0.38041    0.00059     0.38100
      H   90    0.13558      0.00000     0.36377    0.00065     0.36442
      H   91    0.12501      0.00000     0.37418    0.00081     0.37499
      H   92    0.11138      0.00000     0.38776    0.00086     0.38862
 =======================================================================
   * Total *    1.00000     57.97709   129.43273    0.59018   188.00000

 Normal termination of Gaussian 16 at Sat Sep 10 08:23:00 2022.
