 Gaussian 16, Revision A.03,

 ---------------------------------------------------------------------
 # polar def2tzvp empiricaldispersion=gd3bj int=grid=ultrafine pbe1pbe
 ---------------------------------------------------------------------

 ---------
 6k9j_II_S
 ---------
 Symbolic Z-matrix:
 Charge =  0 Multiplicity = 1

 SCF Done:  E(RPBE1PBE) =  -3880.34195063     A.U. after   29 cycles

  Exact polarizability: 917.274 -68.2011034.760 -42.515 127.338 471.804
 Approx polarizability:2052.137********5724.056-447.3131447.7761122.189

 Normal termination of Gaussian 16 at Sat Jan 28 07:25:12 2023.

 ----------------------------------------------------------------------
 # PBE1PBE/def2TZVP empiricaldispersion=GD3BJ int=(grid=ultrafine) geom
 =check guess=read pop=nbo
 ----------------------------------------------------------------------

 -------------
 6k9j_II_S_nbo
 -------------
 Structure from the checkpoint file:  "6k9j_II_S.chk"
 Charge =  0 Multiplicity = 1

 SCF Done:  E(RPBE1PBE) =  -3880.34195063     A.U. after    3 cycles

 Summary of Natural Population Analysis:

                                       Natural Population
                Natural  -----------------------------------------------
    Atom  No    Charge         Core      Valence    Rydberg      Total
 -----------------------------------------------------------------------
      C    1   -0.63546      1.99940     4.62971    0.00636     6.63546
      C    2    0.09024      1.99907     3.89130    0.01940     5.90976
      N    3   -0.48045      1.99934     5.46063    0.02048     7.48045
      C    4   -0.06798      1.99887     4.04997    0.01914     6.06798
      C    5    0.19507      1.99935     3.78600    0.01959     5.80493
      N    6   -0.31214      1.99936     5.25769    0.05509     7.31214
      C    7   -0.61551      1.99945     4.60798    0.00808     6.61551
      C    8   -0.54954      1.99939     4.53066    0.01949     6.54954
      S    9    0.61099      9.99845     5.34745    0.04311    15.38901
      C   10   -0.77060      1.99932     4.75237    0.01892     6.77060
     Fe   11   -0.13125     17.99021     8.09238    0.04866    26.13125
      C   12   -0.28344      1.99894     4.26645    0.01805     6.28344
      C   13   -0.22178      1.99898     4.20502    0.01778     6.22178
      C   14   -0.27577      1.99897     4.25921    0.01759     6.27577
      C   15   -0.25594      1.99893     4.23970    0.01731     6.25594
      N   16   -0.36335      1.99939     5.31651    0.04746     7.36335
      C   17    0.16108      1.99904     3.81872    0.02116     5.83892
      C   18   -0.04144      1.99886     4.02330    0.01928     6.04144
      C   19   -0.02178      1.99886     4.00559    0.01733     6.02178
      C   20    0.14344      1.99901     3.83675    0.02079     5.85656
      C   21   -0.64029      1.99940     4.63343    0.00746     6.64029
      C   22   -0.41873      1.99935     4.40282    0.01656     6.41873
      C   23   -0.51752      1.99929     4.50094    0.01728     6.51752
      C   24    0.76430      1.99949     3.20294    0.03327     5.23570
      O   25   -0.65297      1.99960     6.62296    0.03042     8.65297
      O   26   -0.57787      1.99981     6.55668    0.02138     8.57787
      N   27   -0.39376      1.99928     5.34623    0.04824     7.39376
      C   28    0.14532      1.99896     3.83214    0.02358     5.85468
      C   29    0.00915      1.99843     3.96909    0.02333     5.99085
      C   30   -0.14117      1.99878     4.12017    0.02221     6.14117
      C   31    0.18287      1.99906     3.79595    0.02212     5.81713
      C   32   -1.24356      1.99910     5.18100    0.06346     7.24356
      C   33   -0.18631      1.99939     4.16451    0.02241     6.18631
      C   34   -0.66212      1.99941     4.64749    0.01522     6.66212
      N   35   -0.33412      1.99935     5.28863    0.04614     7.33412
      C   36    0.15057      1.99903     3.82921    0.02120     5.84943
      C   37   -0.05308      1.99884     4.03623    0.01801     6.05308
      C   38   -0.09586      1.99887     4.07649    0.02050     6.09586
      C   39    0.15950      1.99901     3.81968    0.02180     5.84050
      C   40   -0.62658      1.99939     4.61935    0.00784     6.62658
      C   41   -0.12615      1.99944     4.11074    0.01597     6.12615
      C   42   -0.66082      1.99942     4.64910    0.01230     6.66082
      N   43   -0.39185      1.99939     5.34432    0.04814     7.39185
      C   44    0.15648      1.99903     3.82286    0.02164     5.84352
      C   45   -0.03676      1.99879     4.02023    0.01774     6.03676
      C   46   -0.03570      1.99884     4.01800    0.01887     6.03570
      C   47    0.16123      1.99906     3.81879    0.02092     5.83877
      C   48   -0.63702      1.99939     4.62995    0.00767     6.63702
      C   49   -0.42303      1.99934     4.40778    0.01591     6.42303
      C   50   -0.51173      1.99925     4.49535    0.01712     6.51173
      C   51    0.76671      1.99945     3.19983    0.03401     5.23329
      O   52   -0.54979      1.99977     6.52557    0.02444     8.54979
      O   53   -0.69134      1.99967     6.66407    0.02761     8.69134
      H   54    0.21339      0.00000     0.78536    0.00125     0.78661
      H   55    0.23551      0.00000     0.76339    0.00110     0.76449
      H   56    0.22619      0.00000     0.77249    0.00132     0.77381
      H   57    0.22652      0.00000     0.77200    0.00148     0.77348
      H   58    0.22179      0.00000     0.77614    0.00206     0.77821
      H   59    0.20696      0.00000     0.79168    0.00136     0.79304
      H   60    0.21676      0.00000     0.78139    0.00185     0.78324
      H   61    0.21859      0.00000     0.77850    0.00292     0.78141
      H   62    0.24060      0.00000     0.75673    0.00267     0.75940
      H   63    0.22317      0.00000     0.77511    0.00172     0.77683
      H   64    0.25088      0.00000     0.74798    0.00114     0.74912
      H   65    0.21665      0.00000     0.78213    0.00123     0.78335
      H   66    0.22734      0.00000     0.77108    0.00158     0.77266
      H   67    0.20775      0.00000     0.78938    0.00287     0.79225
      H   68    0.23457      0.00000     0.76223    0.00320     0.76543
      H   69    0.22149      0.00000     0.77518    0.00332     0.77851
      H   70    0.21524      0.00000     0.78079    0.00396     0.78476
      H   71    0.22422      0.00000     0.77433    0.00145     0.77578
      H   72    0.21257      0.00000     0.78599    0.00144     0.78743
      H   73    0.22602      0.00000     0.77234    0.00164     0.77398
      H   74    0.23440      0.00000     0.76385    0.00175     0.76560
      H   75    0.22374      0.00000     0.77446    0.00180     0.77626
      H   76    0.23119      0.00000     0.76706    0.00175     0.76881
      H   77    0.22108      0.00000     0.77693    0.00199     0.77892
      H   78    0.40915      0.00000     0.58479    0.00606     0.59085
      H   79    0.41527      0.00000     0.58232    0.00242     0.58473
      H   80    0.37468      0.00000     0.62316    0.00216     0.62532
      H   81    0.21328      0.00000     0.78507    0.00165     0.78672
      H   82    0.21290      0.00000     0.78504    0.00206     0.78710
      H   83    0.22430      0.00000     0.77304    0.00265     0.77570
      H   84    0.22015      0.00000     0.77760    0.00226     0.77985
      H   85    0.21612      0.00000     0.78271    0.00117     0.78388
      H   86    0.21054      0.00000     0.78747    0.00199     0.78946
      H   87    0.21407      0.00000     0.78453    0.00139     0.78593
      H   88    0.21437      0.00000     0.78408    0.00155     0.78563
      H   89    0.22767      0.00000     0.77047    0.00186     0.77233
      H   90    0.22357      0.00000     0.77478    0.00165     0.77643
      H   91    0.21968      0.00000     0.77911    0.00121     0.78032
      H   92    0.21463      0.00000     0.78365    0.00172     0.78537
      H   93    0.23566      0.00000     0.76250    0.00184     0.76434
      H   94    0.21996      0.00000     0.77831    0.00173     0.78004
      H   95    0.22532      0.00000     0.77277    0.00191     0.77468
      H   96    0.23721      0.00000     0.76097    0.00182     0.76279
      H   97    0.41587      0.00000     0.58239    0.00174     0.58413
      H   98    0.50786      0.00000     0.48990    0.00223     0.49214
      H   99    0.50584      0.00000     0.49188    0.00229     0.49416
      H  100    0.20034      0.00000     0.79774    0.00192     0.79966
      H  101    0.20257      0.00000     0.79554    0.00189     0.79743
 =======================================================================
   * Total *    0.00000    129.94787   278.69626    1.35587   410.00000

 Normal termination of Gaussian 16 at Sat Jan 28 08:47:36 2023.
 Gaussian 16:  ES64L-G16RevA.03 25-Dec-2016

 ----------------------------------------------------------------------
 # PBE1PBE/def2TZVP empiricaldispersion=GD3BJ int=(grid=ultrafine) geom
 =check guess=read scrf=(smd,solvent=Chloroform)
 ----------------------------------------------------------------------

 --------------
 6k9j_II_S_solv
 --------------
 Structure from the checkpoint file:  "6k9j_II_S.chk"
 Charge =  0 Multiplicity = 1

                         Standard orientation:
 ---------------------------------------------------------------------
 Center     Atomic      Atomic             Coordinates (Angstroms)
 Number     Number       Type             X           Y           Z
 ---------------------------------------------------------------------
      1          6           0        2.618348   -1.740274    4.948203
      2          6           0        1.782700   -1.236437    3.803960
      3          7           0        0.422835   -1.210439    3.837733
      4          6           0        2.116597   -0.819644    2.563162
      5          6           0       -0.011310   -0.767685    2.661519
      6          7           0        0.999592   -0.502631    1.831755
      7          6           0       -0.879830    2.803911   -2.632089
      8          6           0        0.509754    2.133586   -2.657231
      9         16           0        0.428710    0.374790   -2.287713
     10          6           0        1.756754   -0.261194   -3.256822
     11         26           0        0.868325   -0.048439   -0.085968
     12          6           0       -2.633473   -0.182732   -0.059356
     13          6           0        0.938575   -3.405888   -0.542159
     14          6           0        4.178584    0.161681   -0.487804
     15          6           0        0.705949    3.200550    0.891317
     16          7           0       -0.548895   -1.485201   -0.273287
     17          6           0       -1.927791   -1.350831   -0.337431
     18          6           0       -2.550497   -2.626175   -0.620549
     19          6           0       -1.552173   -3.539263   -0.719770
     20          6           0       -0.307421   -2.838321   -0.498457
     21          6           0       -1.652639   -5.021194   -1.027856
     22          6           0       -4.030329   -2.874243   -0.698074
     23          6           0       -4.574498   -3.234339    0.695980
     24          6           0       -6.038536   -3.654562    0.744193
     25          8           0       -6.486940   -3.937627    1.881949
     26          8           0       -6.709928   -3.729412   -0.346696
     27          7           0        2.302503   -1.409597   -0.457571
     28          6           0        2.160980   -2.731682   -0.505618
     29          6           0        3.444445   -3.323799   -0.675108
     30          6           0        4.366737   -2.342430   -0.751612
     31          6           0        3.611878   -1.092471   -0.564430
     32          6           0        3.643458   -4.839533   -0.669043
     33          6           0        5.802704   -2.411742   -1.077618
     34          6           0        6.118050   -2.973822   -2.385776
     35          7           0        2.146880    1.415845    0.093574
     36          6           0        3.506301    1.327214   -0.112776
     37          6           0        4.157087    2.564602    0.185470
     38          6           0        3.192572    3.425415    0.640747
     39          6           0        1.937173    2.692324    0.575747
     40          6           0        5.653331    2.822965    0.158287
     41          6           0        3.351691    4.768574    1.292750
     42          6           0        4.165830    5.785398    0.556992
     43          7           0       -0.655153    1.209850    0.375870
     44          6           0       -0.518119    2.557817    0.745726
     45          6           0       -1.807961    3.166738    0.930214
     46          6           0       -2.752437    2.236650    0.666053
     47          6           0       -2.024014    1.015600    0.286553
     48          6           0       -2.023560    4.630558    1.296914
     49          6           0       -4.247347    2.439800    0.608473
     50          6           0       -4.593006    3.009123   -0.766090
     51          6           0       -6.001717    3.475858   -0.976223
     52          8           0       -6.846742    3.493727   -0.072774
     53          8           0       -6.284431    3.896517   -2.173183
     54          1           0        1.996574   -2.274728    5.635703
     55          1           0        3.379228   -2.392865    4.573922
     56          1           0        3.073827   -0.911721    5.449141
     57          1           0        3.119912   -0.746339    2.198628
     58          1           0       -1.043732   -0.639729    2.411255
     59          1           0       -1.063663    3.279127   -3.572980
     60          1           0       -0.909025    3.535123   -1.851463
     61          1           0       -1.630404    2.062316   -2.454390
     62          1           0        1.069744    2.579376   -1.861880
     63          1           0        0.858972    2.210102   -3.665741
     64          1           0        2.120679   -1.164696   -2.813941
     65          1           0        1.409308   -0.464692   -4.248169
     66          1           0        2.546399    0.459762   -3.296605
     67          1           0       -3.701651   -0.210441   -0.115289
     68          1           0        0.979282   -4.472880   -0.611226
     69          1           0        5.215877    0.249378   -0.735258
     70          1           0        0.683388    4.193052    1.290481
     71          1           0       -1.052347   -5.571306   -0.333648
     72          1           0       -2.672299   -5.334553   -0.944196
     73          1           0       -1.304137   -5.203021   -2.023037
     74          1           0       -4.165118   -3.739163   -1.313415
     75          1           0       -4.483607   -1.945203   -0.974341
     76          1           0       -4.518618   -2.330444    1.265849
     77          1           0       -4.020398   -4.096236    1.004210
     78          1           0        4.555030   -4.536530   -0.197741
     79          1           0        3.283067   -4.709420   -1.668087
     80          1           0        4.333932   -5.467304   -1.192540
     81          1           0        6.973135   -3.611714   -2.303167
     82          1           0        5.283071   -3.540833   -2.741032
     83          1           0        6.329324   -2.181332   -3.072961
     84          1           0        6.042544    2.770102    1.153586
     85          1           0        6.131662    2.085136   -0.451390
     86          1           0        5.840013    3.795698   -0.246486
     87          1           0        4.757139    6.341278    1.254309
     88          1           0        4.808540    5.290598   -0.140860
     89          1           0        3.514107    6.451577    0.031291
     90          1           0       -2.556049    4.691559    2.223000
     91          1           0       -1.075537    5.116304    1.397928
     92          1           0       -2.590428    5.111306    0.527212
     93          1           0       -4.490750    3.191103    1.330413
     94          1           0       -4.698983    1.471782    0.670660
     95          1           0       -4.464591    2.193439   -1.446582
     96          1           0       -3.990137    3.887662   -0.864170
     97          1           0       -0.150374   -1.477773    4.612306
     98          1           0       -5.976270   -4.494380    2.474268
     99          1           0       -6.253566    3.288467   -2.915424
    100          1           0        2.903745    4.988200    2.239328
    101          1           0        6.560301   -2.073447   -0.401967
 ---------------------------------------------------------------------

 SCF Done:  E(RPBE1PBE) =  -3880.41475667     A.U. after   17 cycles

 The electronic state is 1-A.
 Alpha  occ. eigenvalues -- -256.31332 -89.01673 -30.08348 -25.91145 -25.90885
 Alpha  occ. eigenvalues --  -25.90668 -19.26394 -19.24409 -19.19072 -19.18605
 Alpha  occ. eigenvalues --  -14.43574 -14.38883 -14.37803 -14.37050 -14.36939
 Alpha  occ. eigenvalues --  -14.36060 -10.36023 -10.35483 -10.26988 -10.24863
 Alpha  occ. eigenvalues --  -10.24838 -10.24602 -10.24544 -10.24527 -10.24477
 Alpha  occ. eigenvalues --  -10.24283 -10.24171 -10.24129 -10.24115 -10.24101
 Alpha  occ. eigenvalues --  -10.22999 -10.22628 -10.22611 -10.22437 -10.22250
 Alpha  occ. eigenvalues --  -10.22223 -10.21895 -10.21881 -10.21824 -10.21805
 Alpha  occ. eigenvalues --  -10.21751 -10.21671 -10.21612 -10.21526 -10.21485
 Alpha  occ. eigenvalues --  -10.21448 -10.21361 -10.21324 -10.21150 -10.20737
 Alpha  occ. eigenvalues --  -10.20607 -10.20487 -10.20466 -10.20209 -10.19954
 Alpha  occ. eigenvalues --  -10.19603 -10.17828  -7.99568  -5.93209  -5.92913
 Alpha  occ. eigenvalues --   -5.92415  -3.42757  -2.18732  -2.18209  -2.17850
 Alpha  occ. eigenvalues --   -1.16518  -1.14099  -1.05641  -1.03632  -1.01830
 Alpha  occ. eigenvalues --   -0.98636  -0.97117  -0.96409  -0.95316  -0.90636
 Alpha  occ. eigenvalues --   -0.84439  -0.83940  -0.83612  -0.83540  -0.82999
 Alpha  occ. eigenvalues --   -0.81940  -0.80975  -0.80656  -0.79904  -0.79035
 Alpha  occ. eigenvalues --   -0.78237  -0.77931  -0.76675  -0.76278  -0.75142
 Alpha  occ. eigenvalues --   -0.73880  -0.72819  -0.72358  -0.71602  -0.71354
 Alpha  occ. eigenvalues --   -0.69517  -0.69256  -0.68637  -0.66575  -0.66168
 Alpha  occ. eigenvalues --   -0.65803  -0.64856  -0.64158  -0.64056  -0.62539
 Alpha  occ. eigenvalues --   -0.62158  -0.61173  -0.59518  -0.59076  -0.57476
 Alpha  occ. eigenvalues --   -0.55649  -0.55324  -0.54774  -0.54488  -0.53652
 Alpha  occ. eigenvalues --   -0.52894  -0.52466  -0.52274  -0.51988  -0.51305
 Alpha  occ. eigenvalues --   -0.50835  -0.50515  -0.49563  -0.49217  -0.48767
 Alpha  occ. eigenvalues --   -0.48268  -0.47945  -0.47705  -0.47657  -0.47203
 Alpha  occ. eigenvalues --   -0.46833  -0.46622  -0.45582  -0.45500  -0.45338
 Alpha  occ. eigenvalues --   -0.44721  -0.44375  -0.44161  -0.43955  -0.43821
 Alpha  occ. eigenvalues --   -0.43735  -0.43501  -0.43432  -0.43107  -0.42759
 Alpha  occ. eigenvalues --   -0.42705  -0.42444  -0.42086  -0.42005  -0.41807
 Alpha  occ. eigenvalues --   -0.41754  -0.41316  -0.41151  -0.40939  -0.40521
 Alpha  occ. eigenvalues --   -0.40352  -0.40107  -0.39516  -0.39379  -0.39115
 Alpha  occ. eigenvalues --   -0.38978  -0.38860  -0.38645  -0.38504  -0.38308
 Alpha  occ. eigenvalues --   -0.37957  -0.37466  -0.37247  -0.36926  -0.36840
 Alpha  occ. eigenvalues --   -0.36643  -0.36316  -0.36042  -0.35765  -0.35665
 Alpha  occ. eigenvalues --   -0.35213  -0.34920  -0.34788  -0.34297  -0.34037
 Alpha  occ. eigenvalues --   -0.33241  -0.32860  -0.32762  -0.32197  -0.32087
 Alpha  occ. eigenvalues --   -0.31719  -0.30387  -0.29615  -0.28670  -0.28315
 Alpha  occ. eigenvalues --   -0.28047  -0.27902  -0.26611  -0.25913  -0.24545
 Alpha  occ. eigenvalues --   -0.24230  -0.24089  -0.22730  -0.20950  -0.20454
 Alpha  occ. eigenvalues --   -0.19411  -0.18843  -0.18629  -0.18415  -0.13734
 Alpha virt. eigenvalues --   -0.11110  -0.06478  -0.06071  -0.00548  -0.00372
 Alpha virt. eigenvalues --   -0.00329   0.01195   0.02604   0.02885   0.03286
 Alpha virt. eigenvalues --    0.03856   0.04157   0.04701   0.05013   0.05191

 Mulliken charges:
               1
     1  C   -0.394407
     2  C    0.135372
     3  N   -0.202465
     4  C   -0.246729
     5  C   -0.029210
     6  N    0.069182
     7  C   -0.415112
     8  C   -0.120109
     9  S    0.006814
    10  C   -0.393275
    11  Fe  -0.483934
    12  C   -0.599590
    13  C   -0.550978
    14  C   -0.576859
    15  C   -0.522023
    16  N    0.010144
    17  C    0.281984
    18  C    0.047766
    19  C   -0.113150
    20  C    0.280653
    21  C   -0.436721
    22  C   -0.325180
    23  C   -0.253917
    24  C    0.316700
    25  O   -0.330377
    26  O   -0.430981
    27  N   -0.028868
    28  C    0.257295
    29  C   -0.068212
    30  C   -0.029247
    31  C    0.150540
    32  C   -0.779630
    33  C   -0.365890
    34  C   -0.324811
    35  N    0.068635
    36  C    0.302777
    37  C   -0.112118
    38  C   -0.027359
    39  C    0.182627
    40  C   -0.383400
    41  C   -0.265805
    42  C   -0.319477
    43  N    0.038933
    44  C    0.288337
    45  C   -0.129317
    46  C    0.036457
    47  C    0.169331
    48  C   -0.425870
    49  C   -0.207614
    50  C   -0.259786
    51  C    0.321858
    52  O   -0.375083
    53  O   -0.393776
    54  H    0.142571
    55  H    0.161450
    56  H    0.155487
    57  H    0.164716
    58  H    0.191211
    59  H    0.141122
    60  H    0.131353
    61  H    0.134162
    62  H    0.128986
    63  H    0.149566
    64  H    0.164480
    65  H    0.162621
    66  H    0.155223
    67  H    0.135307
    68  H    0.158113
    69  H    0.137964
    70  H    0.124030
    71  H    0.157616
    72  H    0.141320
    73  H    0.156137
    74  H    0.134638
    75  H    0.126540
    76  H    0.151079
    77  H    0.156574
    78  H    0.240532
    79  H    0.269575
    80  H    0.278937
    81  H    0.129750
    82  H    0.128998
    83  H    0.148910
    84  H    0.145968
    85  H    0.142461
    86  H    0.129914
    87  H    0.134356
    88  H    0.125951
    89  H    0.152708
    90  H    0.156589
    91  H    0.139963
    92  H    0.142302
    93  H    0.121002
    94  H    0.123131
    95  H    0.150526
    96  H    0.149245
    97  H    0.275194
    98  H    0.390818
    99  H    0.382147
   100  H    0.169282
   101  H    0.165349
 Sum of Mulliken charges =  -0.00000

 Dipole moment (field-independent basis, Debye):
    X=              6.5640    Y=              0.1146    Z=              3.3515  Tot=              7.3710
 Quadrupole moment (field-independent basis, Debye-Ang):
   XX=           -383.7945   YY=           -318.1973   ZZ=           -271.5674
   XY=             16.5952   XZ=            -11.7592   YZ=            -22.8706

 Normal termination of Gaussian 16 at Sat Jan 28 16:41:14 2023.
