 Gaussian 16, Revision A.03,
 Gaussian 16:  ES64L-G16RevA.03 25-Dec-2016

 ----------------------------------------------------------------------
 # PBE1PBE/def2TZVP empiricaldispersion=GD3BJ scf=maxcycle=999 geom=che
 ck pop=nbo
 ----------------------------------------------------------------------

 ----------
 6u97_III_D
 ----------
 Structure from the checkpoint file:  "6u97_III_D.chk"
 Charge =  1 Multiplicity = 2

                         Standard orientation:
 ---------------------------------------------------------------------
 Center     Atomic      Atomic             Coordinates (Angstroms)
 Number     Number       Type             X           Y           Z
 ---------------------------------------------------------------------
      1          6           0        3.101105   -1.354477    4.982334
      2          6           0        2.179313   -0.879700    3.908946
      3          7           0        0.858977   -0.558060    4.112472
      4          6           0        2.392221   -0.757279    2.597601
      5          6           0        0.312101   -0.231984    2.965759
      6          7           0        1.196849   -0.351046    2.021651
      7          1           0        4.020043   -1.683175    4.543689
      8          1           0        2.646494   -2.167343    5.509095
      9          1           0        0.454898   -0.570153    4.871566
     10          1           0        3.192643   -0.915166    2.152139
     11          1           0       -0.569440    0.042282    2.847657
     12          6           0       -0.085785    2.863147   -2.782704
     13          6           0        0.975839    1.782390   -2.886368
     14         16           0        0.396357    0.184148   -2.239507
     15          6           0        1.374269   -0.911828   -3.197002
     16          1           0       -0.541728    2.823633   -1.815515
     17          1           0       -0.830336    2.705037   -3.534732
     18          1           0        1.217753    1.661536   -3.818107
     19          1           0        1.754960    2.051078   -2.373715
     20          1           0        1.178476   -1.823900   -2.930695
     21          1           0        1.160106   -0.788262   -4.134515
     22          1           0        2.311510   -0.715694   -3.042859
     23          6           0       -2.509699   -0.218745    0.415055
     24          6           0        0.987897   -3.447857   -0.312719
     25          6           0        4.207713    0.102820   -0.612342
     26          6           0        0.760419    3.242548    0.647682
     27          6           0       -1.872074   -1.421767    0.307534
     28          6           0       -2.456056   -2.755678    0.331709
     29          6           0       -1.511459   -3.634337    0.064286
     30          6           0       -0.266802   -2.891367   -0.117823
     31          6           0       -1.634175   -5.131145   -0.007902
     32          6           0       -3.921695   -3.014501    0.646388
     33          6           0       -4.873338   -2.557612   -0.416712
     34          6           0       -6.339669   -2.712456   -0.043588
     35          8           0       -6.695284   -3.337147    0.995661
     36          8           0       -7.173995   -2.144577   -0.817757
     37          6           0        2.159129   -2.748536   -0.488872
     38          6           0        3.426475   -3.382138   -0.770641
     39          6           0        4.313392   -2.381607   -0.898097
     40          6           0        3.646212   -1.141866   -0.653769
     41          6           0        3.630702   -4.880655   -0.946767
     42          6           0        5.800934   -2.472112   -1.331313
     43          6           0        6.030802   -3.056820   -2.582690
     44          6           0        3.587306    1.293672   -0.269565
     45          6           0        4.188983    2.591882   -0.055831
     46          6           0        3.228527    3.431567    0.328176
     47          6           0        1.980275    2.686730    0.366654
     48          6           0        5.668944    2.846115   -0.229912
     49          6           0        3.380038    4.880230    0.774632
     50          6           0        4.021071    5.799315   -0.027023
     51          6           0       -0.453514    2.598330    0.623010
     52          6           0       -1.742360    3.237236    0.677239
     53          6           0       -2.645773    2.270851    0.582913
     54          6           0       -1.960813    1.024368    0.479835
     55          6           0       -2.013346    4.734251    0.818871
     56          6           0       -4.170409    2.461222    0.583482
     57          6           0       -4.707422    2.452544   -0.853688
     58          6           0       -6.183346    2.628228   -0.934416
     59          8           0       -6.817108    2.080226   -1.857316
     60          8           0       -6.781509    3.311318   -0.085644
     61          7           0       -0.539450   -1.558279    0.066893
     62          7           0        2.327067   -1.403024   -0.364211
     63          7           0        2.263578    1.407084    0.011834
     64          7           0       -0.621167    1.265921    0.443419
     65         26           0        0.864259   -0.074817    0.027991
     66          1           0        1.044536   -4.426005   -0.326736
     67          1           0        5.156314    0.160641   -0.852327
     68          1           0        0.751404    4.192096    0.890134
     69          1           0       -1.947678   -5.476031    0.853963
     70          1           0       -0.759898   -5.521154   -0.216505
     71          1           0       -2.275071   -5.373852   -0.709110
     72          1           0       -4.141305   -2.550481    1.469460
     73          1           0       -4.040399   -3.968908    0.770698
     74          1           0       -4.706559   -3.076418   -1.218700
     75          1           0       -4.703285   -1.619831   -0.596661
     76          1           0        4.562027   -5.058178   -1.152375
     77          1           0        3.072484   -5.199734   -1.672647
     78          1           0        3.387980   -5.338224   -0.126454
     79          1           0        6.515891   -2.148586   -0.777602
     80          1           0        6.937291   -3.146217   -2.918071
     81          1           0        5.284053   -3.372145   -3.115640
     82          1           0        6.170626    2.259935    0.357643
     83          1           0        5.867179    3.770285   -0.010389
     84          1           0        5.921698    2.672922   -1.151014
     85          1           0        3.023958    5.155388    1.622852
     86          1           0        4.111700    6.718461    0.266350
     87          1           0        4.381581    5.525728   -0.884348
     88          1           0       -2.925364    4.931076    0.517744
     89          1           0       -1.373697    5.235581    0.272010
     90          1           0       -1.916120    4.996067    1.758359
     91          1           0       -4.387309    3.308971    1.001686
     92          1           0       -4.583099    1.739196    1.083880
     93          1           0       -4.475776    1.604628   -1.263208
     94          1           0       -4.284499    3.175965   -1.343924
     95          1           0       -3.488650   -0.255571    0.449510
     96          1           0        3.297669   -0.553310    5.663799
     97          1           0        0.366639    3.822322   -2.924819
     98          1           0       -7.736392    3.251007   -0.007155
     99          1           0       -7.609181   -3.611235    1.101817
 ---------------------------------------------------------------------

 SCF Done:  E(UPBE1PBE) =  -3878.86342218     A.U. after   83 cycles

 Alpha virt. eigenvalues --    0.93150   0.93350   0.93504   0.93718   0.94272
 Alpha virt. eigenvalues --    0.94385   0.94724   0.94793   0.95183   0.95280
 Alpha virt. eigenvalues --    0.95393   0.95896   0.96077   0.96469   0.96758

  Beta  occ. eigenvalues -- -256.50902 -89.14771 -30.27264 -26.10316 -26.10161
  Beta  occ. eigenvalues --  -26.09366 -19.33819 -19.32684 -19.23714 -19.22783
  Beta  occ. eigenvalues --  -14.53831 -14.51101 -14.48697 -14.48689 -14.48669
  Beta  occ. eigenvalues --  -14.48411 -10.42219 -10.40807 -10.37757 -10.36370
  Beta  occ. eigenvalues --  -10.35393 -10.35152 -10.35089 -10.35069 -10.35037
  Beta  occ. eigenvalues --  -10.35011 -10.34822 -10.34741 -10.32685 -10.32400
  Beta  occ. eigenvalues --  -10.32248 -10.32201 -10.31966 -10.31965 -10.31963
  Beta  occ. eigenvalues --  -10.31871 -10.31618 -10.31606 -10.31412 -10.31396
  Beta  occ. eigenvalues --  -10.31246 -10.31178 -10.31148 -10.30973 -10.30870
  Beta  occ. eigenvalues --  -10.30533 -10.29507 -10.28987 -10.28818 -10.28537
  Beta  occ. eigenvalues --  -10.28323 -10.28260 -10.28212 -10.27089 -10.26902
  Beta  occ. eigenvalues --  -10.26576 -10.26106  -8.12632  -6.06223  -6.05978
  Beta  occ. eigenvalues --   -6.05555  -3.59541  -2.34948  -2.34749  -2.34149
  Beta  occ. eigenvalues --   -1.23696  -1.23329  -1.18823  -1.09711  -1.08850
  Beta  occ. eigenvalues --   -1.08483  -1.07845  -1.07636  -1.07601  -1.03774
  Beta  occ. eigenvalues --   -0.96554  -0.94896  -0.94045  -0.93808  -0.92835
  Beta  occ. eigenvalues --   -0.92639  -0.92260  -0.92220  -0.91933  -0.89832
  Beta  occ. eigenvalues --   -0.89245  -0.89116  -0.87475  -0.87106  -0.86875
  Beta  occ. eigenvalues --   -0.84333  -0.83729  -0.83441  -0.82927  -0.82402
  Beta  occ. eigenvalues --   -0.80849  -0.79090  -0.78768  -0.78589  -0.78446
  Beta  occ. eigenvalues --   -0.76905  -0.76707  -0.75479  -0.74965  -0.74591
  Beta  occ. eigenvalues --   -0.73039  -0.72396  -0.72009  -0.70248  -0.70022
  Beta  occ. eigenvalues --   -0.69211  -0.66807  -0.66157  -0.65902  -0.64678
  Beta  occ. eigenvalues --   -0.63709  -0.63300  -0.62832  -0.61091  -0.60836
  Beta  occ. eigenvalues --   -0.60498  -0.60202  -0.60080  -0.59570  -0.59221
  Beta  occ. eigenvalues --   -0.58956  -0.58786  -0.58450  -0.58208  -0.57836
  Beta  occ. eigenvalues --   -0.57473  -0.57239  -0.56582  -0.56514  -0.56142
  Beta  occ. eigenvalues --   -0.55860  -0.55500  -0.55287  -0.55080  -0.55022
  Beta  occ. eigenvalues --   -0.54705  -0.54480  -0.54339  -0.53917  -0.53869
  Beta  occ. eigenvalues --   -0.53499  -0.53282  -0.53008  -0.52770  -0.52704
  Beta  occ. eigenvalues --   -0.52622  -0.52108  -0.51970  -0.51919  -0.51531
  Beta  occ. eigenvalues --   -0.51455  -0.51192  -0.50940  -0.50433  -0.49959
  Beta  occ. eigenvalues --   -0.49789  -0.49271  -0.48912  -0.48628  -0.48447
  Beta  occ. eigenvalues --   -0.48374  -0.48029  -0.47927  -0.47638  -0.47577
  Beta  occ. eigenvalues --   -0.47221  -0.46820  -0.46630  -0.45976  -0.45565
  Beta  occ. eigenvalues --   -0.45377  -0.44997  -0.44710  -0.44099  -0.43855
  Beta  occ. eigenvalues --   -0.43744  -0.43401  -0.43284  -0.42304  -0.41222
  Beta  occ. eigenvalues --   -0.39267  -0.39131  -0.38720  -0.38346  -0.38221
  Beta  occ. eigenvalues --   -0.37946  -0.37500  -0.36715  -0.36312  -0.35581
  Beta  occ. eigenvalues --   -0.35166  -0.34348  -0.33794  -0.33319  -0.33045
  Beta  occ. eigenvalues --   -0.32694  -0.30123  -0.29280
  Beta virt. eigenvalues --   -0.19487  -0.17538  -0.15774  -0.14202  -0.11485
  Beta virt. eigenvalues --   -0.11017  -0.09579  -0.08540  -0.08407  -0.06622
  Beta virt. eigenvalues --   -0.06182  -0.05870  -0.05252  -0.04995  -0.04727

 Mulliken charges and spin densities:
               1          2
     1  C   -0.363202  -0.000216
     2  C    0.218556  -0.000268
     3  N   -0.164892  -0.000270
     4  C   -0.243519   0.002244
     5  C    0.035625   0.002533
     6  N    0.064807  -0.037435
     7  H    0.150902   0.000005
     8  H    0.148093   0.000030
     9  H    0.172694  -0.000151
    10  H    0.152617  -0.000459
    11  H    0.185151  -0.000322
    12  C   -0.339177  -0.000017
    13  C   -0.180864   0.003376
    14  S    0.069005  -0.040515
    15  C   -0.355463   0.003752
    16  H    0.121582   0.000171
    17  H    0.138603  -0.000045
    18  H    0.152616  -0.000738
    19  H    0.142495  -0.000767
    20  H    0.163787  -0.000138
    21  H    0.182770  -0.001669
    22  H    0.151527  -0.000235
    23  C   -0.426205  -0.010794
    24  C   -0.495298  -0.004916
    25  C   -0.554477  -0.007562
    26  C   -0.583265  -0.004131
    27  C    0.218971   0.005476
    28  C    0.031352   0.013143
    29  C   -0.096034  -0.002465
    30  C    0.283974   0.012667
    31  C   -0.360322  -0.000405
    32  C   -0.339442  -0.001359
    33  C   -0.144183   0.000617
    34  C    0.241541   0.000044
    35  O   -0.326603  -0.000006
    36  O   -0.370721   0.000129
    37  C    0.187625   0.010345
    38  C   -0.074851  -0.004705
    39  C    0.039537   0.011394
    40  C    0.210548   0.002136
    41  C   -0.358645  -0.000411
    42  C   -0.239030  -0.002184
    43  C   -0.264888   0.002221
    44  C    0.268095   0.002082
    45  C   -0.075816   0.012908
    46  C    0.060273  -0.003064
    47  C    0.289831   0.011860
    48  C   -0.337836  -0.000872
    49  C   -0.255670  -0.000343
    50  C   -0.262889  -0.000423
    51  C    0.190259   0.010340
    52  C   -0.047644  -0.004635
    53  C    0.055836   0.011676
    54  C    0.249479   0.006413
    55  C   -0.367466  -0.000430
    56  C   -0.390753  -0.001044
    57  C   -0.125383   0.000663
    58  C    0.235980   0.000028
    59  O   -0.364141   0.000155
    60  O   -0.329052  -0.000009
    61  N    0.039979  -0.046061
    62  N    0.023740  -0.038996
    63  N    0.018498  -0.042934
    64  N   -0.010278  -0.041650
    65  Fe  -0.353460   1.175043
    66  H    0.136412   0.000121
    67  H    0.144715   0.000046
    68  H    0.134298   0.000149
    69  H    0.152328  -0.000065
    70  H    0.125834  -0.000047
    71  H    0.149917  -0.000056
    72  H    0.136453   0.000366
    73  H    0.133061   0.000010
    74  H    0.136458   0.000015
    75  H    0.128633  -0.000019
    76  H    0.166786  -0.000094
    77  H    0.147817  -0.000051
    78  H    0.143447  -0.000037
    79  H    0.147796   0.000216
    80  H    0.148300  -0.000031
    81  H    0.151108  -0.000071
    82  H    0.141988   0.000455
    83  H    0.157909  -0.000058
    84  H    0.143905   0.000412
    85  H    0.139396   0.000017
    86  H    0.147273   0.000001
    87  H    0.151979   0.000022
    88  H    0.144470  -0.000095
    89  H    0.146509  -0.000034
    90  H    0.153345  -0.000058
    91  H    0.154359   0.000074
    92  H    0.132922   0.000152
    93  H    0.140167  -0.000023
    94  H    0.130999  -0.000009
    95  H    0.136431   0.000039
    96  H    0.154983  -0.000063
    97  H    0.134354  -0.000109
    98  H    0.357422   0.000008
    99  H    0.353349   0.000007
 Sum of Mulliken charges =   1.00000   1.00000

 Dipole moment (field-independent basis, Debye):
    X=              6.7427    Y=             -1.4817    Z=              6.7982  Tot=              9.6889
 Quadrupole moment (field-independent basis, Debye-Ang):
   XX=           -263.4491   YY=           -243.1408   ZZ=           -267.4895
   XY=              1.7503   XZ=            -37.5670   YZ=             -2.1608

 Summary of Natural Population Analysis:

                                       Natural Population
                Natural  -----------------------------------------------
    Atom  No    Charge         Core      Valence    Rydberg      Total
 -----------------------------------------------------------------------
      C    1   -0.32173      0.99969     2.31870    0.00333     3.32173
      C    2    0.06720      0.99955     1.92594    0.00731     2.93280
      N    3   -0.21368      0.99970     2.70481    0.00917     3.71368
      C    4   -0.02451      0.99940     2.01611    0.00900     3.02451
      C    5    0.11824      0.99962     1.87333    0.00881     2.88176
      N    6   -0.17878      0.99970     2.65291    0.02617     3.67878
      H    7    0.12023      0.00000     0.37930    0.00046     0.37977
      H    8    0.11484      0.00000     0.38449    0.00068     0.38516
      H    9    0.19242      0.00000     0.30674    0.00084     0.30758
      H   10    0.10061      0.00000     0.39852    0.00087     0.39939
      H   11    0.09756      0.00000     0.40139    0.00104     0.40244
      C   12   -0.30487      0.99973     2.29965    0.00549     3.30487
      C   13   -0.23805      0.99944     2.22977    0.00884     3.23805
      S   14    0.30318      4.99930     2.67916    0.01836     7.69682
      C   15   -0.35129      0.99946     2.34287    0.00896     3.35129
      H   16    0.10952      0.00000     0.38961    0.00087     0.39048
      H   17    0.10874      0.00000     0.39074    0.00052     0.39126
      H   18    0.10565      0.00000     0.39360    0.00075     0.39435
      H   19    0.10552      0.00000     0.39325    0.00123     0.39448
      H   20    0.11581      0.00000     0.38358    0.00061     0.38419
      H   21    0.11057      0.00000     0.38879    0.00064     0.38943
      H   22    0.10885      0.00000     0.39019    0.00097     0.39115
      C   23   -0.12018      0.99948     2.11217    0.00853     3.12018
      C   24   -0.11948      0.99950     2.11189    0.00809     3.11948
      C   25   -0.11815      0.99949     2.11057    0.00809     3.11815
      C   26   -0.11524      0.99949     2.10772    0.00804     3.11524
      C   27    0.08383      0.99954     1.90657    0.01006     2.91617
      C   28    0.00072      0.99935     1.99119    0.00874     2.99928
      C   29   -0.00397      0.99936     1.99680    0.00781     3.00397
      C   30    0.09493      0.99955     1.89501    0.01051     2.90507
      C   31   -0.30622      0.99960     2.30326    0.00336     3.30622
      C   32   -0.20389      0.99954     2.19845    0.00589     3.20389
      C   33   -0.22810      0.99949     2.22084    0.00777     3.22810
      C   34    0.37906      0.99980     1.60334    0.01779     2.62094
      O   35   -0.32513      0.99982     3.31262    0.01269     4.32513
      O   36   -0.30003      0.99990     3.28819    0.01194     4.30003
      C   37    0.08424      0.99952     1.90573    0.01050     2.91576
      C   38    0.00007      0.99938     1.99210    0.00844     2.99993
      C   39   -0.03072      0.99935     2.02084    0.01053     3.03072
      C   40    0.07377      0.99950     1.91656    0.01017     2.92623
      C   41   -0.30496      0.99957     2.30218    0.00320     3.30496
      C   42   -0.08825      0.99964     2.08164    0.00697     3.08825
      C   43   -0.15587      0.99969     2.15091    0.00528     3.15587
      C   44    0.07790      0.99955     1.91227    0.01028     2.92210
      C   45    0.00999      0.99938     1.98236    0.00827     2.99001
      C   46   -0.03822      0.99937     2.02842    0.01044     3.03822
      C   47    0.09208      0.99953     1.89769    0.01070     2.90792
      C   48   -0.30619      0.99958     2.30343    0.00318     3.30619
      C   49   -0.08918      0.99963     2.08240    0.00716     3.08918
      C   50   -0.15878      0.99968     2.15358    0.00552     3.15878
      C   51    0.08573      0.99953     1.90390    0.01084     2.91427
      C   52   -0.00681      0.99934     1.99939    0.00809     3.00681
      C   53   -0.00203      0.99934     1.99362    0.00906     3.00203
      C   54    0.07454      0.99951     1.91583    0.01012     2.92546
      C   55   -0.30475      0.99959     2.30190    0.00326     3.30475
      C   56   -0.19653      0.99953     2.19146    0.00554     3.19653
      C   57   -0.23240      0.99949     2.22536    0.00755     3.23240
      C   58    0.37831      0.99978     1.60329    0.01863     2.62169
      O   59   -0.29999      0.99989     3.28755    0.01255     4.29999
      O   60   -0.32398      0.99980     3.31097    0.01321     4.32398
      N   61   -0.20755      0.99967     2.68385    0.02403     3.70755
      N   62   -0.21333      0.99967     2.68804    0.02562     3.71333
      N   63   -0.20576      0.99966     2.68240    0.02369     3.70576
      N   64   -0.21490      0.99967     2.69013    0.02510     3.71490
     Fe   65    0.64214      8.99615     3.33502    0.02670    12.35786
      H   66    0.10639      0.00000     0.39232    0.00129     0.39361
      H   67    0.10908      0.00000     0.38984    0.00107     0.39092
      H   68    0.10913      0.00000     0.38978    0.00109     0.39087
      H   69    0.11008      0.00000     0.38923    0.00069     0.38992
      H   70    0.10485      0.00000     0.39460    0.00054     0.39515
      H   71    0.11040      0.00000     0.38893    0.00066     0.38960
      H   72    0.10392      0.00000     0.39507    0.00100     0.39608
      H   73    0.10540      0.00000     0.39365    0.00095     0.39460
      H   74    0.11387      0.00000     0.38553    0.00060     0.38613
      H   75    0.10939      0.00000     0.38998    0.00063     0.39061
      H   76    0.11301      0.00000     0.38631    0.00068     0.38699
      H   77    0.10699      0.00000     0.39233    0.00068     0.39301
      H   78    0.10717      0.00000     0.39214    0.00069     0.39283
      H   79    0.09405      0.00000     0.40520    0.00075     0.40595
      H   80    0.09263      0.00000     0.40671    0.00067     0.40737
      H   81    0.08841      0.00000     0.41090    0.00069     0.41159
      H   82    0.10742      0.00000     0.39188    0.00070     0.39258
      H   83    0.11194      0.00000     0.38734    0.00072     0.38806
      H   84    0.10763      0.00000     0.39170    0.00067     0.39237
      H   85    0.09366      0.00000     0.40557    0.00077     0.40634
      H   86    0.09325      0.00000     0.40609    0.00066     0.40675
      H   87    0.08863      0.00000     0.41066    0.00071     0.41137
      H   88    0.10805      0.00000     0.39133    0.00062     0.39195
      H   89    0.10774      0.00000     0.39163    0.00063     0.39226
      H   90    0.10941      0.00000     0.38990    0.00069     0.39059
      H   91    0.10610      0.00000     0.39285    0.00105     0.39390
      H   92    0.10162      0.00000     0.39734    0.00104     0.39838
      H   93    0.11279      0.00000     0.38655    0.00065     0.38721
      H   94    0.11128      0.00000     0.38813    0.00060     0.38872
      H   95    0.10476      0.00000     0.39396    0.00128     0.39524
      H   96    0.11575      0.00000     0.38357    0.00068     0.38425
      H   97    0.11299      0.00000     0.38647    0.00053     0.38701
      H   98    0.25951      0.00000     0.23903    0.00146     0.24049
      H   99    0.25995      0.00000     0.23861    0.00145     0.24005
 =======================================================================
   * Total *    1.00000     64.97351   137.42006    0.60643   203.00000

 Normal termination of Gaussian 16 at Sat Sep 10 03:44:53 2022.
