 Gaussian 16, Revision A.03,
 Gaussian 16:  ES64L-G16RevA.03 25-Dec-2016

 ----------------------------------------------------------------------
 # PBE1PBE/def2TZVP empiricaldispersion=GD3BJ scf=maxcycle=999 geom=che
 ck guess=read pop=nbo
 ----------------------------------------------------------------------

 ----------
 1jp9_III_D
 ----------
 Structure from the checkpoint file:  "1jp9_III_Dn.chk"
 Charge =  1 Multiplicity = 2

                         Standard orientation:
 ---------------------------------------------------------------------
 Center     Atomic      Atomic             Coordinates (Angstroms)
 Number     Number       Type             X           Y           Z
 ---------------------------------------------------------------------
      1          6           0       -1.395105    0.237801    5.325101
      2          6           0       -1.115773   -0.209118    3.926321
      3          7           0       -0.355513   -1.322749    3.644721
      4          6           0       -1.442763    0.336271    2.731444
      5          6           0       -0.222377   -1.442615    2.336770
      6          7           0       -0.872166   -0.448993    1.759017
      7         26           0       -0.786576    0.105819   -0.393746
      8          6           0        2.565034   -0.456715   -0.401142
      9          6           0       -1.329263   -3.231035   -0.981568
     10          6           0       -4.153758    0.650501   -0.492792
     11          6           0       -0.234031    3.379598    0.067908
     12          7           0        0.367113   -1.509906   -0.629387
     13          6           0        1.742071   -1.562904   -0.598045
     14          6           0        2.211031   -2.939568   -0.808791
     15          6           0        1.088196   -3.694995   -0.972063
     16          6           0       -0.029732   -2.825295   -0.864554
     17          6           0        1.002304   -5.182531   -1.222759
     18          6           0        3.634099   -3.361492   -0.827449
     19          6           0        4.051759   -4.076796    0.499890
     20          6           0        3.820045   -3.196221    1.695908
     21          8           0        4.468979   -2.151005    1.857717
     22          8           0        2.930600   -3.567113    2.525546
     23          7           0       -2.416450   -1.028173   -0.657083
     24          6           0       -2.441838   -2.402602   -0.888289
     25          6           0       -3.835030   -2.853940   -1.026783
     26          6           0       -4.613287   -1.789311   -0.889544
     27          6           0       -3.722504   -0.663661   -0.667420
     28          6           0       -4.214727   -4.285441   -1.286181
     29          6           0       -6.118641   -1.711723   -0.955716
     30          6           0       -6.789040   -2.373053   -1.930280
     31          7           0       -1.959044    1.717843   -0.226045
     32          6           0       -3.345937    1.764152   -0.294906
     33          6           0       -3.813284    3.113437   -0.151516
     34          6           0       -2.703750    3.868980   -0.001809
     35          6           0       -1.561623    2.984289   -0.041771
     36          6           0       -5.260287    3.514120   -0.190806
     37          6           0       -2.527577    5.348692    0.169132
     38          6           0       -3.611236    6.162226    0.189446
     39          7           0        0.856109    1.260233   -0.184741
     40          6           0        0.890324    2.601096    0.003905
     41          6           0        2.222846    3.075334    0.104050
     42          6           0        3.031684    1.969985   -0.038249
     43          6           0        2.161108    0.836073   -0.217006
     44          6           0        2.630054    4.504737    0.310798
     45          6           0        4.531444    1.961309   -0.021945
     46          6           0        5.057331    2.147052   -1.479451
     47          6           0        6.548308    2.148766   -1.587869
     48          8           0        7.299647    2.536633   -0.659147
     49          8           0        7.025969    1.736381   -2.678535
     50          8           0       -0.761310    0.686228   -2.458533
     51          1           0        2.015113   -3.641731    2.246411
     52          1           0        5.089999   -4.330404    0.448497
     53          1           0        3.477814   -4.973174    0.609398
     54          1           0        4.250705   -2.498016   -0.965671
     55          1           0        3.786781   -4.032627   -1.646696
     56          1           0        8.102206    3.022678   -0.862271
     57          1           0        4.672614    1.352691   -2.084334
     58          1           0        4.686981    3.076189   -1.859510
     59          1           0        4.887631    2.761898    0.592130
     60          1           0        4.880032    1.028037    0.368427
     61          1           0        2.592098    5.025098   -0.623378
     62          1           0        1.961481    4.969190    1.005199
     63          1           0        3.626945    4.539167    0.697996
     64          1           0        1.805627   -5.483411   -1.862324
     65          1           0        1.072292   -5.705713   -0.292016
     66          1           0        0.068169   -5.411883   -1.691469
     67          1           0        3.619704   -0.637013   -0.393211
     68          1           0       -1.504967   -4.271398   -1.159537
     69          1           0       -0.069536    4.425589    0.222002
     70          1           0       -5.210322    0.818318   -0.513088
     71          1           0       -3.528987   -4.715095   -1.986223
     72          1           0       -4.179692   -4.835535   -0.369082
     73          1           0       -5.205712   -4.324423   -1.687837
     74          1           0       -6.656880   -1.134546   -0.233175
     75          1           0       -6.333630   -2.520918   -2.887170
     76          1           0       -7.773764   -2.747340   -1.742859
     77          1           0       -5.601840    3.518194   -1.204820
     78          1           0       -5.839108    2.816519    0.377716
     79          1           0       -5.370754    4.493094    0.226695
     80          1           0       -1.546296    5.761939    0.275036
     81          1           0       -3.976246    6.589962   -0.720889
     82          1           0       -4.101829    6.376818    1.115820
     83          1           0        0.319932   -2.213891    1.830869
     84          1           0        0.034621   -1.943452    4.324812
     85          1           0       -2.034315    1.213836    2.573818
     86          1           0       -1.510781    1.301373    5.343326
     87          1           0       -2.294454   -0.224823    5.674458
     88          1           0       -0.580033   -0.043232    5.958803
     89          1           0       -0.000853    0.841645   -3.023466
     90          1           0       -0.467646    0.325895   -1.618580
 ---------------------------------------------------------------------

 SCF Done:  E(UPBE1PBE) =  -3438.32571616     A.U. after   51 cycles

 Alpha virt. eigenvalues --    0.62996   0.63375   0.63590   0.64032   0.64146
 Alpha virt. eigenvalues --    0.64247   0.64823   0.65189   0.65612   0.65955
 Alpha virt. eigenvalues --    0.66063   0.66572   0.66656   0.67029   0.67625

  Beta  occ. eigenvalues -- -256.43956 -30.20575 -26.03558 -26.03037 -26.02882
  Beta  occ. eigenvalues --  -19.33594 -19.32689 -19.30664 -19.26415 -19.23408
  Beta  occ. eigenvalues --  -14.54335 -14.49805 -14.49308 -14.48407 -14.48302
  Beta  occ. eigenvalues --  -14.47299 -10.43318 -10.41539 -10.40252 -10.38141
  Beta  occ. eigenvalues --  -10.36862 -10.36680 -10.36237 -10.35968 -10.35764
  Beta  occ. eigenvalues --  -10.35654 -10.35519 -10.35396 -10.35271 -10.34916
  Beta  occ. eigenvalues --  -10.34754 -10.33497 -10.33308 -10.32694 -10.32619
  Beta  occ. eigenvalues --  -10.32556 -10.32310 -10.32273 -10.32167 -10.31928
  Beta  occ. eigenvalues --  -10.31909 -10.31899 -10.31801 -10.31793 -10.31752
  Beta  occ. eigenvalues --  -10.31673 -10.31450 -10.31265 -10.30683 -10.30683
  Beta  occ. eigenvalues --  -10.30588 -10.30070 -10.30022 -10.29322  -3.55886
  Beta  occ. eigenvalues --   -2.32982  -2.31014  -2.30570  -1.23891  -1.23029
  Beta  occ. eigenvalues --   -1.16442  -1.15074  -1.11246  -1.10359  -1.08296
  Beta  occ. eigenvalues --   -1.07878  -1.07837  -1.06987  -1.00653  -0.96052
  Beta  occ. eigenvalues --   -0.94587  -0.93493  -0.92704  -0.92455  -0.92185
  Beta  occ. eigenvalues --   -0.91470  -0.90829  -0.89869  -0.88365  -0.87705
  Beta  occ. eigenvalues --   -0.86373  -0.86204  -0.84394  -0.83043  -0.82157
  Beta  occ. eigenvalues --   -0.81891  -0.81381  -0.79766  -0.78543  -0.77462
  Beta  occ. eigenvalues --   -0.76614  -0.76109  -0.74554  -0.74297  -0.73627
  Beta  occ. eigenvalues --   -0.73057  -0.72161  -0.70256  -0.70077  -0.69122
  Beta  occ. eigenvalues --   -0.68495  -0.66528  -0.66471  -0.66052  -0.65413
  Beta  occ. eigenvalues --   -0.64304  -0.62993  -0.62524  -0.62380  -0.61363
  Beta  occ. eigenvalues --   -0.60357  -0.59649  -0.59193  -0.58449  -0.58354
  Beta  occ. eigenvalues --   -0.57923  -0.57546  -0.57484  -0.57188  -0.57041
  Beta  occ. eigenvalues --   -0.56354  -0.56182  -0.55978  -0.55557  -0.55281
  Beta  occ. eigenvalues --   -0.55103  -0.54934  -0.54436  -0.54278  -0.53950
  Beta  occ. eigenvalues --   -0.53506  -0.53456  -0.53099  -0.52566  -0.52382
  Beta  occ. eigenvalues --   -0.52224  -0.52041  -0.51943  -0.51697  -0.51368
  Beta  occ. eigenvalues --   -0.51250  -0.51039  -0.50911  -0.50425  -0.50313
  Beta  occ. eigenvalues --   -0.50184  -0.50004  -0.49684  -0.49404  -0.49065
  Beta  occ. eigenvalues --   -0.48863  -0.48133  -0.47869  -0.47619  -0.47121
  Beta  occ. eigenvalues --   -0.46984  -0.46368  -0.46205  -0.45631  -0.45419
  Beta  occ. eigenvalues --   -0.45074  -0.44337  -0.43625  -0.43514  -0.43211
  Beta  occ. eigenvalues --   -0.43113  -0.42585  -0.41996  -0.41677  -0.41281
  Beta  occ. eigenvalues --   -0.40404  -0.40080  -0.39111  -0.38385  -0.38248
  Beta  occ. eigenvalues --   -0.37050  -0.36223  -0.35991  -0.35053  -0.34187
  Beta  occ. eigenvalues --   -0.33504  -0.33003  -0.32598  -0.32016  -0.31070
  Beta  occ. eigenvalues --   -0.30187  -0.29837
  Beta virt. eigenvalues --   -0.23376  -0.17320  -0.17225  -0.17007  -0.14228
  Beta virt. eigenvalues --   -0.11739  -0.09737  -0.09289  -0.07644  -0.07472
  Beta virt. eigenvalues --   -0.06940  -0.06700  -0.05518  -0.05360  -0.04749

 Mulliken charges and spin densities:
               1          2
     1  C   -0.370418   0.000002
     2  C    0.160611   0.000005
     3  N   -0.205513  -0.000004
     4  C   -0.187076  -0.000070
     5  C    0.102264  -0.000059
     6  N   -0.128884   0.000106
     7  Fe  -0.313210   0.000144
     8  C   -0.422864   0.006078
     9  C   -0.489246   0.011053
    10  C   -0.470998   0.016742
    11  C   -0.482608   0.004696
    12  N    0.000357   0.005052
    13  C    0.298856  -0.010180
    14  C   -0.160640  -0.005006
    15  C   -0.087892   0.001963
    16  C    0.355256  -0.014924
    17  C   -0.387337   0.000008
    18  C   -0.232904   0.000562
    19  C   -0.221477  -0.000335
    20  C    0.304336  -0.000116
    21  O   -0.332471   0.000020
    22  O   -0.341333   0.000004
    23  N    0.035642   0.008635
    24  C    0.256804  -0.018332
    25  C   -0.084216  -0.001310
    26  C    0.017080  -0.001013
    27  C    0.270680  -0.016237
    28  C   -0.371611   0.000092
    29  C   -0.237101   0.001471
    30  C   -0.295006  -0.002219
    31  N    0.015835   0.006244
    32  C    0.300542  -0.020369
    33  C   -0.094475   0.038424
    34  C   -0.046247   0.036605
    35  C    0.304162  -0.012052
    36  C   -0.362376   0.004534
    37  C    0.017522  -0.044760
    38  C   -0.339875   1.042733
    39  N    0.019373   0.002491
    40  C    0.278105  -0.008077
    41  C   -0.099683  -0.001355
    42  C    0.071906  -0.000167
    43  C    0.191176  -0.010680
    44  C   -0.396643   0.000117
    45  C   -0.400358   0.000147
    46  C   -0.143181  -0.000168
    47  C    0.248548  -0.000014
    48  O   -0.331423  -0.000000
    49  O   -0.367920  -0.000062
    50  O   -0.440890   0.000032
    51  H    0.333912   0.000008
    52  H    0.149476  -0.000049
    53  H    0.128872   0.000004
    54  H    0.135813  -0.000036
    55  H    0.140244  -0.000198
    56  H    0.359342  -0.000001
    57  H    0.139973   0.000005
    58  H    0.133489   0.000004
    59  H    0.132853  -0.000014
    60  H    0.164317  -0.000019
    61  H    0.157926  -0.000133
    62  H    0.132317  -0.000028
    63  H    0.142705  -0.000011
    64  H    0.152982   0.000001
    65  H    0.144999  -0.000037
    66  H    0.140785   0.000020
    67  H    0.136086  -0.000240
    68  H    0.128222  -0.000464
    69  H    0.087488   0.000578
    70  H    0.132835  -0.000356
    71  H    0.135216  -0.000080
    72  H    0.149033  -0.000204
    73  H    0.159347  -0.000023
    74  H    0.134999  -0.000191
    75  H    0.160753   0.000108
    76  H    0.151415   0.000114
    77  H    0.172248   0.002195
    78  H    0.149557   0.002818
    79  H    0.148656  -0.003920
    80  H    0.170399   0.052020
    81  H    0.194069  -0.036333
    82  H    0.192466  -0.036066
    83  H    0.080498   0.000076
    84  H    0.243898   0.000001
    85  H    0.140660   0.000045
    86  H    0.148534  -0.000000
    87  H    0.156697  -0.000001
    88  H    0.140877  -0.000001
    89  H    0.344351  -0.000009
    90  H    0.248514  -0.000034
 Sum of Mulliken charges =   1.00000   1.00000

 Dipole moment (field-independent basis, Debye):
    X=             -7.9451    Y=              3.9605    Z=              4.7688  Tot=             10.0773
 Quadrupole moment (field-independent basis, Debye-Ang):
   XX=           -232.5096   YY=           -173.4803   ZZ=           -273.0209
   XY=            -12.1625   XZ=              1.9640   YZ=              4.9724

 Summary of Natural Population Analysis:

                                       Natural Population
                Natural  -----------------------------------------------
    Atom  No    Charge         Core      Valence    Rydberg      Total
 -----------------------------------------------------------------------
      C    1   -0.32113      0.99969     2.31824    0.00320     3.32113
      C    2    0.05939      0.99955     1.93182    0.00924     2.94061
      N    3   -0.23740      0.99967     2.72743    0.01030     3.73740
      C    4   -0.04080      0.99944     2.03223    0.00913     3.04080
      C    5    0.09751      0.99968     1.89281    0.01001     2.90249
      N    6   -0.18034      0.99968     2.65852    0.02215     3.68034
     Fe    7    0.10556      8.98655     3.88890    0.01900    12.89444
      C    8   -0.11341      0.99947     2.10540    0.00853     3.11341
      C    9   -0.11267      0.99947     2.10520    0.00800     3.11267
      C   10   -0.10194      0.99951     2.09473    0.00770     3.10194
      C   11   -0.11836      0.99950     2.11090    0.00796     3.11836
      N   12   -0.20430      0.99967     2.68249    0.02214     3.70430
      C   13    0.08483      0.99955     1.90512    0.01050     2.91517
      C   14   -0.01610      0.99947     2.00715    0.00949     3.01610
      C   15   -0.01574      0.99943     2.00731    0.00900     3.01574
      C   16    0.07586      0.99948     1.91415    0.01052     2.92414
      C   17   -0.31926      0.99970     2.31322    0.00634     3.31926
      C   18   -0.21087      0.99964     2.20393    0.00730     3.21087
      C   19   -0.25324      0.99962     2.24558    0.00804     3.25324
      C   20    0.38613      0.99973     1.59686    0.01727     2.61387
      O   21   -0.27896      0.99989     3.26693    0.01215     4.27896
      O   22   -0.34080      0.99981     3.32628    0.01471     4.34080
      N   23   -0.17794      0.99967     2.65561    0.02266     3.67794
      C   24    0.09061      0.99956     1.89990    0.00994     2.90939
      C   25    0.00535      0.99940     1.98650    0.00875     2.99465
      C   26   -0.04283      0.99934     2.03266    0.01083     3.04283
      C   27    0.09362      0.99955     1.89683    0.01000     2.90638
      C   28   -0.32306      0.99970     2.31711    0.00625     3.32306
      C   29   -0.10763      0.99961     2.09873    0.00929     3.10763
      C   30   -0.18207      0.99964     2.17424    0.00818     3.18207
      N   31   -0.16537      0.99967     2.64289    0.02281     3.66537
      C   32    0.06978      0.99953     1.92087    0.00982     2.93022
      C   33    0.02896      0.99942     1.96267    0.00895     2.97104
      C   34   -0.03061      0.99935     2.02094    0.01032     3.03061
      C   35    0.09928      0.99954     1.89076    0.01042     2.90072
      C   36   -0.31607      0.99969     2.31012    0.00626     3.31607
      C   37   -0.00984      0.99962     2.00194    0.00828     3.00984
      C   38    0.30929      0.99963     1.68290    0.00818     2.69071
      N   39   -0.19905      0.99965     2.67754    0.02186     3.69905
      C   40    0.08525      0.99950     1.90480    0.01045     2.91475
      C   41   -0.01093      0.99946     2.00335    0.00812     3.01093
      C   42    0.00087      0.99948     1.99054    0.00911     2.99913
      C   43    0.08221      0.99951     1.90800    0.01028     2.91779
      C   44   -0.32083      0.99970     2.31491    0.00623     3.32083
      C   45   -0.21741      0.99966     2.21088    0.00687     3.21741
      C   46   -0.24262      0.99962     2.23465    0.00836     3.24262
      C   47    0.37647      0.99974     1.60595    0.01783     2.62353
      O   48   -0.32896      0.99981     3.31569    0.01346     4.32896
      O   49   -0.29752      0.99990     3.28588    0.01174     4.29752
      O   50   -0.37033      0.99991     3.36325    0.00717     4.37033
      H   51    0.25185      0.00000     0.24711    0.00104     0.24815
      H   52    0.12702      0.00000     0.37240    0.00058     0.37298
      H   53    0.10550      0.00000     0.39378    0.00072     0.39450
      H   54    0.11663      0.00000     0.38260    0.00077     0.38337
      H   55    0.11740      0.00000     0.38180    0.00080     0.38260
      H   56    0.26127      0.00000     0.23745    0.00128     0.23873
      H   57    0.12021      0.00000     0.37913    0.00066     0.37979
      H   58    0.11856      0.00000     0.38082    0.00062     0.38144
      H   59    0.11476      0.00000     0.38442    0.00082     0.38524
      H   60    0.11493      0.00000     0.38413    0.00094     0.38507
      H   61    0.11477      0.00000     0.38453    0.00070     0.38523
      H   62    0.11080      0.00000     0.38859    0.00061     0.38920
      H   63    0.11524      0.00000     0.38410    0.00066     0.38476
      H   64    0.11658      0.00000     0.38275    0.00068     0.38342
      H   65    0.11244      0.00000     0.38687    0.00069     0.38756
      H   66    0.11242      0.00000     0.38708    0.00050     0.38758
      H   67    0.11733      0.00000     0.38145    0.00121     0.38267
      H   68    0.11287      0.00000     0.38575    0.00138     0.38713
      H   69    0.10413      0.00000     0.39460    0.00128     0.39587
      H   70    0.11289      0.00000     0.38600    0.00111     0.38711
      H   71    0.11181      0.00000     0.38764    0.00055     0.38819
      H   72    0.11500      0.00000     0.38430    0.00070     0.38500
      H   73    0.12141      0.00000     0.37800    0.00059     0.37859
      H   74    0.10754      0.00000     0.39158    0.00088     0.39246
      H   75    0.10246      0.00000     0.39669    0.00086     0.39754
      H   76    0.10477      0.00000     0.39455    0.00068     0.39523
      H   77    0.12290      0.00000     0.37646    0.00064     0.37710
      H   78    0.11903      0.00000     0.38043    0.00054     0.38097
      H   79    0.11410      0.00000     0.38538    0.00052     0.38590
      H   80    0.14018      0.00000     0.35922    0.00060     0.35982
      H   81    0.10484      0.00000     0.39443    0.00073     0.39516
      H   82    0.10330      0.00000     0.39596    0.00074     0.39670
      H   83    0.10251      0.00000     0.39624    0.00125     0.39749
      H   84    0.21164      0.00000     0.28753    0.00083     0.28836
      H   85    0.11297      0.00000     0.38638    0.00065     0.38703
      H   86    0.11886      0.00000     0.38064    0.00049     0.38114
      H   87    0.11615      0.00000     0.38320    0.00065     0.38385
      H   88    0.11339      0.00000     0.38599    0.00061     0.38661
      H   89    0.24766      0.00000     0.25100    0.00134     0.25234
      H   90    0.18931      0.00000     0.30694    0.00375     0.31069
 =======================================================================
   * Total *    1.00000     57.96707   128.45317    0.57976   187.00000

 Normal termination of Gaussian 16 at Thu Dec 29 00:19:06 2022.
