 Gaussian 16, Revision A.03,
 Gaussian 16:  ES64L-G16RevA.03 25-Dec-2016

 ----------------------------------------------------------------------
 # PBE1PBE/def2TZVP empiricaldispersion=GD3BJ scf=maxcycle=999 geom=che
 ck pop=nbo
 ----------------------------------------------------------------------

 ----------
 6u97_III_H
 ----------
 Structure from the checkpoint file:  "6u97_III_H.chk"
 Charge =  1 Multiplicity = 6

                         Standard orientation:
 ---------------------------------------------------------------------
 Center     Atomic      Atomic             Coordinates (Angstroms)
 Number     Number       Type             X           Y           Z
 ---------------------------------------------------------------------
      1          6           0        3.101105   -1.354477    4.982334
      2          6           0        2.179313   -0.879700    3.908946
      3          7           0        0.858977   -0.558060    4.112472
      4          6           0        2.392221   -0.757279    2.597601
      5          6           0        0.312101   -0.231984    2.965759
      6          7           0        1.196849   -0.351046    2.021651
      7          1           0        4.020043   -1.683175    4.543689
      8          1           0        2.646494   -2.167343    5.509095
      9          1           0        0.454898   -0.570153    4.871566
     10          1           0        3.192643   -0.915166    2.152139
     11          1           0       -0.569440    0.042282    2.847657
     12          6           0       -0.085785    2.863147   -2.782704
     13          6           0        0.975839    1.782390   -2.886368
     14         16           0        0.396357    0.184148   -2.239507
     15          6           0        1.374269   -0.911828   -3.197002
     16          1           0       -0.541728    2.823633   -1.815515
     17          1           0       -0.830336    2.705037   -3.534732
     18          1           0        1.217753    1.661536   -3.818107
     19          1           0        1.754960    2.051078   -2.373715
     20          1           0        1.178476   -1.823900   -2.930695
     21          1           0        1.160106   -0.788262   -4.134515
     22          1           0        2.311510   -0.715694   -3.042859
     23          6           0       -2.509699   -0.218745    0.415055
     24          6           0        0.987897   -3.447857   -0.312719
     25          6           0        4.207713    0.102820   -0.612342
     26          6           0        0.760419    3.242548    0.647682
     27          6           0       -1.872074   -1.421767    0.307534
     28          6           0       -2.456056   -2.755678    0.331709
     29          6           0       -1.511459   -3.634337    0.064286
     30          6           0       -0.266802   -2.891367   -0.117823
     31          6           0       -1.634175   -5.131145   -0.007902
     32          6           0       -3.921695   -3.014501    0.646388
     33          6           0       -4.873338   -2.557612   -0.416712
     34          6           0       -6.339669   -2.712456   -0.043588
     35          8           0       -6.695284   -3.337147    0.995661
     36          8           0       -7.173995   -2.144577   -0.817757
     37          6           0        2.159129   -2.748536   -0.488872
     38          6           0        3.426475   -3.382138   -0.770641
     39          6           0        4.313392   -2.381607   -0.898097
     40          6           0        3.646212   -1.141866   -0.653769
     41          6           0        3.630702   -4.880655   -0.946767
     42          6           0        5.800934   -2.472112   -1.331313
     43          6           0        6.030802   -3.056820   -2.582690
     44          6           0        3.587306    1.293672   -0.269565
     45          6           0        4.188983    2.591882   -0.055831
     46          6           0        3.228527    3.431567    0.328176
     47          6           0        1.980275    2.686730    0.366654
     48          6           0        5.668944    2.846115   -0.229912
     49          6           0        3.380038    4.880230    0.774632
     50          6           0        4.021071    5.799315   -0.027023
     51          6           0       -0.453514    2.598330    0.623010
     52          6           0       -1.742360    3.237236    0.677239
     53          6           0       -2.645773    2.270851    0.582913
     54          6           0       -1.960813    1.024368    0.479835
     55          6           0       -2.013346    4.734251    0.818871
     56          6           0       -4.170409    2.461222    0.583482
     57          6           0       -4.707422    2.452544   -0.853688
     58          6           0       -6.183346    2.628228   -0.934416
     59          8           0       -6.817108    2.080226   -1.857316
     60          8           0       -6.781509    3.311318   -0.085644
     61          7           0       -0.539450   -1.558279    0.066893
     62          7           0        2.327067   -1.403024   -0.364211
     63          7           0        2.263578    1.407084    0.011834
     64          7           0       -0.621167    1.265921    0.443419
     65         26           0        0.864259   -0.074817    0.027991
     66          1           0        1.044536   -4.426005   -0.326736
     67          1           0        5.156314    0.160641   -0.852327
     68          1           0        0.751404    4.192096    0.890134
     69          1           0       -1.947678   -5.476031    0.853963
     70          1           0       -0.759898   -5.521154   -0.216505
     71          1           0       -2.275071   -5.373852   -0.709110
     72          1           0       -4.141305   -2.550481    1.469460
     73          1           0       -4.040399   -3.968908    0.770698
     74          1           0       -4.706559   -3.076418   -1.218700
     75          1           0       -4.703285   -1.619831   -0.596661
     76          1           0        4.562027   -5.058178   -1.152375
     77          1           0        3.072484   -5.199734   -1.672647
     78          1           0        3.387980   -5.338224   -0.126454
     79          1           0        6.515891   -2.148586   -0.777602
     80          1           0        6.937291   -3.146217   -2.918071
     81          1           0        5.284053   -3.372145   -3.115640
     82          1           0        6.170626    2.259935    0.357643
     83          1           0        5.867179    3.770285   -0.010389
     84          1           0        5.921698    2.672922   -1.151014
     85          1           0        3.023958    5.155388    1.622852
     86          1           0        4.111700    6.718461    0.266350
     87          1           0        4.381581    5.525728   -0.884348
     88          1           0       -2.925364    4.931076    0.517744
     89          1           0       -1.373697    5.235581    0.272010
     90          1           0       -1.916120    4.996067    1.758359
     91          1           0       -4.387309    3.308971    1.001686
     92          1           0       -4.583099    1.739196    1.083880
     93          1           0       -4.475776    1.604628   -1.263208
     94          1           0       -4.284499    3.175965   -1.343924
     95          1           0       -3.488650   -0.255571    0.449510
     96          1           0        3.297669   -0.553310    5.663799
     97          1           0        0.366639    3.822322   -2.924819
     98          1           0       -7.736392    3.251007   -0.007155
     99          1           0       -7.609181   -3.611235    1.101817
 ---------------------------------------------------------------------

 SCF Done:  E(UPBE1PBE) =  -3878.85199962     A.U. after   29 cycles

 Alpha virt. eigenvalues --    0.93403   0.93604   0.94174   0.94282   0.94584
 Alpha virt. eigenvalues --    0.94698   0.94933   0.95116   0.95241   0.95664
 Alpha virt. eigenvalues --    0.95908   0.96332   0.96580   0.96662   0.96944

  Beta  occ. eigenvalues -- -256.54650 -89.12718 -30.27820 -26.11034 -26.11014
  Beta  occ. eigenvalues --  -26.10965 -19.33848 -19.32726 -19.23743 -19.22825
  Beta  occ. eigenvalues --  -14.53751 -14.49470 -14.47437 -14.47337 -14.47279
  Beta  occ. eigenvalues --  -14.47256 -10.42250 -10.40854 -10.37643 -10.36242
  Beta  occ. eigenvalues --  -10.35441 -10.35240 -10.35239 -10.35143 -10.35129
  Beta  occ. eigenvalues --  -10.35126 -10.34949 -10.34941 -10.32560 -10.32464
  Beta  occ. eigenvalues --  -10.32409 -10.32047 -10.32035 -10.31933 -10.31889
  Beta  occ. eigenvalues --  -10.31864 -10.31748 -10.31729 -10.31600 -10.31461
  Beta  occ. eigenvalues --  -10.31307 -10.31261 -10.31215 -10.31048 -10.30968
  Beta  occ. eigenvalues --  -10.30028 -10.29202 -10.29064 -10.28915 -10.28580
  Beta  occ. eigenvalues --  -10.28400 -10.28300 -10.28285 -10.27227 -10.26984
  Beta  occ. eigenvalues --  -10.26698 -10.26131  -8.10822  -6.04450  -6.04140
  Beta  occ. eigenvalues --   -6.03612  -3.56970  -2.31514  -2.31267  -2.31145
  Beta  occ. eigenvalues --   -1.23739  -1.23359  -1.18561  -1.09590  -1.08723
  Beta  occ. eigenvalues --   -1.08264  -1.07885  -1.07645  -1.07421  -1.03376
  Beta  occ. eigenvalues --   -0.95711  -0.94996  -0.94071  -0.93900  -0.92784
  Beta  occ. eigenvalues --   -0.92632  -0.92322  -0.92244  -0.91958  -0.89895
  Beta  occ. eigenvalues --   -0.89311  -0.88605  -0.87542  -0.87176  -0.86950
  Beta  occ. eigenvalues --   -0.84392  -0.83683  -0.83446  -0.82992  -0.82423
  Beta  occ. eigenvalues --   -0.80889  -0.79074  -0.78550  -0.78363  -0.78166
  Beta  occ. eigenvalues --   -0.76953  -0.76756  -0.75357  -0.75000  -0.74646
  Beta  occ. eigenvalues --   -0.72511  -0.72442  -0.72042  -0.70210  -0.70108
  Beta  occ. eigenvalues --   -0.69086  -0.66876  -0.66220  -0.65927  -0.64776
  Beta  occ. eigenvalues --   -0.63745  -0.63306  -0.62801  -0.61141  -0.60592
  Beta  occ. eigenvalues --   -0.60378  -0.60205  -0.59941  -0.59559  -0.59086
  Beta  occ. eigenvalues --   -0.58980  -0.58786  -0.58509  -0.57791  -0.57563
  Beta  occ. eigenvalues --   -0.57377  -0.56932  -0.56604  -0.56527  -0.56144
  Beta  occ. eigenvalues --   -0.55816  -0.55361  -0.55273  -0.55067  -0.54939
  Beta  occ. eigenvalues --   -0.54754  -0.54464  -0.54370  -0.53917  -0.53827
  Beta  occ. eigenvalues --   -0.53464  -0.53303  -0.52903  -0.52818  -0.52739
  Beta  occ. eigenvalues --   -0.52667  -0.52133  -0.51924  -0.51893  -0.51550
  Beta  occ. eigenvalues --   -0.51431  -0.51114  -0.50937  -0.50366  -0.49780
  Beta  occ. eigenvalues --   -0.49700  -0.49278  -0.48910  -0.48697  -0.48498
  Beta  occ. eigenvalues --   -0.48262  -0.48046  -0.47800  -0.47611  -0.47539
  Beta  occ. eigenvalues --   -0.47046  -0.46298  -0.46258  -0.45699  -0.45629
  Beta  occ. eigenvalues --   -0.45395  -0.45034  -0.44331  -0.44070  -0.43893
  Beta  occ. eigenvalues --   -0.43706  -0.43442  -0.43075  -0.42233  -0.40756
  Beta  occ. eigenvalues --   -0.39234  -0.39111  -0.38275  -0.38175  -0.37997
  Beta  occ. eigenvalues --   -0.37142  -0.36370  -0.35932  -0.35243  -0.34724
  Beta  occ. eigenvalues --   -0.33891  -0.33465  -0.33245  -0.32977  -0.30019
  Beta  occ. eigenvalues --   -0.29346
  Beta virt. eigenvalues --   -0.20531  -0.20119  -0.18333  -0.16273  -0.16109
  Beta virt. eigenvalues --   -0.12586  -0.11341  -0.10826  -0.09613  -0.08518
  Beta virt. eigenvalues --   -0.08158  -0.06251  -0.06052  -0.05851  -0.05098

 Mulliken charges and spin densities:
               1          2
     1  C   -0.363442   0.000996
     2  C    0.218141   0.005211
     3  N   -0.164423   0.004880
     4  C   -0.242005   0.001088
     5  C    0.039646   0.008022
     6  N    0.038087   0.052402
     7  H    0.150417   0.000009
     8  H    0.147558   0.000196
     9  H    0.171699   0.000972
    10  H    0.151178   0.000433
    11  H    0.183926   0.000308
    12  C   -0.335112  -0.001549
    13  C   -0.180941   0.004237
    14  S    0.005704   0.114528
    15  C   -0.355062   0.001259
    16  H    0.117695   0.000520
    17  H    0.137634   0.000468
    18  H    0.150159   0.001896
    19  H    0.138494   0.001945
    20  H    0.161890  -0.000160
    21  H    0.179759   0.002735
    22  H    0.148063   0.001688
    23  C   -0.436991  -0.023624
    24  C   -0.502977  -0.021511
    25  C   -0.563507  -0.019588
    26  C   -0.585641  -0.023145
    27  C    0.228313   0.022139
    28  C    0.031761   0.015389
    29  C   -0.094346   0.016317
    30  C    0.301341   0.019875
    31  C   -0.359556   0.000549
    32  C   -0.339680  -0.000296
    33  C   -0.144028   0.000529
    34  C    0.241428   0.000038
    35  O   -0.326640  -0.000002
    36  O   -0.370463   0.000142
    37  C    0.208314   0.019871
    38  C   -0.070491   0.017224
    39  C    0.040654   0.016899
    40  C    0.224390   0.020082
    41  C   -0.358330   0.000146
    42  C   -0.239445  -0.002779
    43  C   -0.264354   0.004595
    44  C    0.279684   0.015385
    45  C   -0.075614   0.016438
    46  C    0.060659   0.015330
    47  C    0.306027   0.023987
    48  C   -0.338091   0.000257
    49  C   -0.255773  -0.002996
    50  C   -0.261950   0.005582
    51  C    0.212611   0.021613
    52  C   -0.043783   0.017454
    53  C    0.058330   0.017499
    54  C    0.259988   0.025360
    55  C   -0.367049   0.000144
    56  C   -0.390482  -0.000319
    57  C   -0.125494   0.000828
    58  C    0.235817   0.000055
    59  O   -0.363541   0.000264
    60  O   -0.329143  -0.000000
    61  N   -0.003888   0.047031
    62  N   -0.045605   0.059288
    63  N   -0.036201   0.053807
    64  N   -0.071191   0.047455
    65  Fe  -0.136149   4.364054
    66  H    0.136356   0.000205
    67  H    0.145002   0.000265
    68  H    0.134179   0.000084
    69  H    0.152563   0.000432
    70  H    0.125901   0.000003
    71  H    0.150406   0.000468
    72  H    0.136481   0.000314
    73  H    0.132942   0.000306
    74  H    0.136708   0.000006
    75  H    0.128628   0.000001
    76  H    0.166981   0.000276
    77  H    0.148860   0.000401
    78  H    0.144001   0.000439
    79  H    0.148213   0.000267
    80  H    0.148601  -0.000024
    81  H    0.151658  -0.000140
    82  H    0.142021   0.000397
    83  H    0.157617   0.000322
    84  H    0.144389   0.000326
    85  H    0.139689   0.000274
    86  H    0.147522  -0.000087
    87  H    0.152482  -0.000196
    88  H    0.144857   0.000333
    89  H    0.147571   0.000209
    90  H    0.153957   0.000566
    91  H    0.154368   0.000328
    92  H    0.133114   0.000175
    93  H    0.140969  -0.000017
    94  H    0.131417  -0.000022
    95  H    0.136542   0.000086
    96  H    0.154552   0.000206
    97  H    0.132471   0.000334
    98  H    0.357567   0.000006
    99  H    0.353436   0.000005
 Sum of Mulliken charges =   1.00000   5.00000

 Dipole moment (field-independent basis, Debye):
    X=              6.7357    Y=             -1.5216    Z=              7.1740  Tot=              9.9575
 Quadrupole moment (field-independent basis, Debye-Ang):
   XX=           -262.8849   YY=           -242.5623   ZZ=           -270.7743
   XY=              1.3912   XZ=            -37.8427   YZ=             -1.5218

 Summary of Natural Population Analysis:

                                       Natural Population
                Natural  -----------------------------------------------
    Atom  No    Charge         Core      Valence    Rydberg      Total
 -----------------------------------------------------------------------
      C    1   -0.32130      0.99970     2.31823    0.00337     3.32130
      C    2    0.07085      0.99954     1.92101    0.00860     2.92915
      N    3   -0.20895      0.99970     2.70037    0.00888     3.70895
      C    4   -0.02296      0.99940     2.01485    0.00871     3.02296
      C    5    0.12446      0.99960     1.86633    0.00962     2.87554
      N    6   -0.14870      0.99971     2.62620    0.02278     3.64870
      H    7    0.12011      0.00000     0.37941    0.00049     0.37989
      H    8    0.11476      0.00000     0.38454    0.00071     0.38524
      H    9    0.19248      0.00000     0.30671    0.00081     0.30752
      H   10    0.10109      0.00000     0.39805    0.00086     0.39891
      H   11    0.09822      0.00000     0.40090    0.00088     0.40178
      C   12   -0.30341      0.99972     2.29792    0.00577     3.30341
      C   13   -0.23250      0.99944     2.22431    0.00874     3.23250
      S   14    0.34610      4.99899     2.63148    0.02343     7.65390
      C   15   -0.34622      0.99947     2.33805    0.00870     3.34622
      H   16    0.10812      0.00000     0.39104    0.00084     0.39188
      H   17    0.10892      0.00000     0.39053    0.00055     0.39108
      H   18    0.10675      0.00000     0.39260    0.00066     0.39325
      H   19    0.10455      0.00000     0.39416    0.00129     0.39545
      H   20    0.11513      0.00000     0.38426    0.00060     0.38487
      H   21    0.11224      0.00000     0.38722    0.00054     0.38776
      H   22    0.10803      0.00000     0.39091    0.00105     0.39197
      C   23   -0.12006      0.99948     2.11247    0.00811     3.12006
      C   24   -0.11599      0.99945     2.10900    0.00754     3.11599
      C   25   -0.11487      0.99945     2.10792    0.00751     3.11487
      C   26   -0.11343      0.99948     2.10632    0.00762     3.11343
      C   27    0.09651      0.99953     1.89400    0.00996     2.90349
      C   28   -0.00015      0.99936     1.99189    0.00890     3.00015
      C   29    0.01462      0.99920     1.97551    0.01067     2.98538
      C   30    0.09413      0.99954     1.89566    0.01067     2.90587
      C   31   -0.30712      0.99961     2.30427    0.00325     3.30712
      C   32   -0.20368      0.99954     2.19826    0.00588     3.20368
      C   33   -0.22805      0.99949     2.22080    0.00776     3.22805
      C   34    0.37904      0.99980     1.60337    0.01779     2.62096
      O   35   -0.32514      0.99982     3.31263    0.01269     4.32514
      O   36   -0.29990      0.99990     3.28806    0.01194     4.29990
      C   37    0.08783      0.99951     1.90258    0.01009     2.91217
      C   38    0.01163      0.99939     1.98040    0.00859     2.98837
      C   39   -0.01912      0.99920     2.00712    0.01280     3.01912
      C   40    0.08316      0.99950     1.90686    0.01048     2.91684
      C   41   -0.30524      0.99957     2.30249    0.00319     3.30524
      C   42   -0.09005      0.99964     2.08354    0.00687     3.09005
      C   43   -0.15416      0.99969     2.14930    0.00517     3.15416
      C   44    0.08944      0.99954     1.90088    0.01014     2.91056
      C   45    0.01215      0.99938     1.98032    0.00816     2.98785
      C   46   -0.02607      0.99936     2.01637    0.01034     3.02607
      C   47    0.09529      0.99951     1.89498    0.01022     2.90471
      C   48   -0.30604      0.99958     2.30326    0.00319     3.30604
      C   49   -0.09100      0.99962     2.08422    0.00715     3.09100
      C   50   -0.15513      0.99968     2.14999    0.00546     3.15513
      C   51    0.08712      0.99952     1.90254    0.01082     2.91288
      C   52    0.01479      0.99919     1.97537    0.01065     2.98521
      C   53   -0.00059      0.99935     1.99207    0.00918     3.00059
      C   54    0.08801      0.99950     1.90251    0.00998     2.91199
      C   55   -0.30567      0.99959     2.30294    0.00313     3.30567
      C   56   -0.19644      0.99953     2.19137    0.00554     3.19644
      C   57   -0.23219      0.99949     2.22516    0.00754     3.23219
      C   58    0.37826      0.99978     1.60335    0.01862     2.62174
      O   59   -0.29963      0.99989     3.28719    0.01255     4.29963
      O   60   -0.32401      0.99980     3.31100    0.01320     4.32401
      N   61   -0.18253      0.99969     2.66080    0.02204     3.68253
      N   62   -0.18735      0.99969     2.66617    0.02149     3.68735
      N   63   -0.18095      0.99968     2.65997    0.02131     3.68095
      N   64   -0.19009      0.99969     2.66835    0.02205     3.69009
     Fe   65    2.29027      8.99618     1.66467    0.04888    10.70973
      H   66    0.10688      0.00000     0.39181    0.00131     0.39312
      H   67    0.10967      0.00000     0.38923    0.00109     0.39033
      H   68    0.10988      0.00000     0.38905    0.00107     0.39012
      H   69    0.11048      0.00000     0.38883    0.00068     0.38952
      H   70    0.10491      0.00000     0.39455    0.00054     0.39509
      H   71    0.11092      0.00000     0.38842    0.00066     0.38908
      H   72    0.10397      0.00000     0.39507    0.00097     0.39603
      H   73    0.10546      0.00000     0.39361    0.00094     0.39454
      H   74    0.11394      0.00000     0.38547    0.00059     0.38606
      H   75    0.10935      0.00000     0.39003    0.00062     0.39065
      H   76    0.11318      0.00000     0.38614    0.00068     0.38682
      H   77    0.10760      0.00000     0.39173    0.00066     0.39240
      H   78    0.10772      0.00000     0.39162    0.00066     0.39228
      H   79    0.09426      0.00000     0.40501    0.00073     0.40574
      H   80    0.09274      0.00000     0.40660    0.00066     0.40726
      H   81    0.08845      0.00000     0.41087    0.00068     0.41155
      H   82    0.10741      0.00000     0.39190    0.00069     0.39259
      H   83    0.11196      0.00000     0.38732    0.00072     0.38804
      H   84    0.10773      0.00000     0.39161    0.00066     0.39227
      H   85    0.09390      0.00000     0.40533    0.00077     0.40610
      H   86    0.09328      0.00000     0.40607    0.00066     0.40672
      H   87    0.08865      0.00000     0.41064    0.00071     0.41135
      H   88    0.10836      0.00000     0.39103    0.00061     0.39164
      H   89    0.10826      0.00000     0.39111    0.00063     0.39174
      H   90    0.11009      0.00000     0.38922    0.00069     0.38991
      H   91    0.10619      0.00000     0.39277    0.00104     0.39381
      H   92    0.10178      0.00000     0.39720    0.00101     0.39822
      H   93    0.11293      0.00000     0.38642    0.00065     0.38707
      H   94    0.11136      0.00000     0.38804    0.00060     0.38864
      H   95    0.10573      0.00000     0.39303    0.00124     0.39427
      H   96    0.11575      0.00000     0.38352    0.00073     0.38425
      H   97    0.11241      0.00000     0.38705    0.00054     0.38759
      H   98    0.25956      0.00000     0.23898    0.00146     0.24044
      H   99    0.25997      0.00000     0.23858    0.00145     0.24003
 =======================================================================
   * Total *    3.00006     64.97264   135.40288    0.62443   200.99994

 Normal termination of Gaussian 16 at Fri Sep 30 08:29:59 2022.
