 Gaussian 16, Revision A.03,
 Gaussian 16:  ES64L-G16RevA.03 25-Dec-2016

 ----------------------------------------------------------------------
 # PBE1PBE/def2TZVP scf=qc empiricaldispersion=GD3BJ scf=maxcycle=999 g
 eom=check pop=nbo
 ----------------------------------------------------------------------

 ----------
 6xcx_III_H
 ----------
 Structure from the checkpoint file:  "6xcx_III_H.chk"
 Charge =  1 Multiplicity = 6

                         Standard orientation:
 ---------------------------------------------------------------------
 Center     Atomic      Atomic             Coordinates (Angstroms)
 Number     Number       Type             X           Y           Z
 ---------------------------------------------------------------------
      1         26           0        1.017703   -0.050158    0.309016
      2          6           0       -2.371938    0.104599    0.517352
      3          6           0        0.793846   -3.571069    0.384597
      4          6           0        4.314184   -0.382362   -0.714685
      5          6           0        1.279219    3.290341    0.141297
      6          7           0       -0.423572   -1.430029    0.479609
      7          6           0       -1.777532   -1.131142    0.455966
      8          6           0       -2.530140   -2.323041    0.368557
      9          6           0       -1.651954   -3.352724    0.333885
     10          6           0       -0.351946   -2.805702    0.397887
     11          6           0       -1.994620   -4.819788    0.241794
     12          6           0       -4.034875   -2.446607    0.337722
     13          6           0       -4.527607   -2.670787   -1.092601
     14          6           0       -5.920117   -3.253972   -1.099335
     15          8           0       -6.532357   -3.343011   -2.185414
     16          8           0       -6.461508   -3.657990   -0.040072
     17          7           0        2.282867   -1.685161   -0.103938
     18          6           0        2.009368   -2.990861    0.022583
     19          6           0        3.153036   -3.776311   -0.299269
     20          6           0        4.159769   -2.917485   -0.604917
     21          6           0        3.581023   -1.550265   -0.461336
     22          6           0        3.261031   -5.281870   -0.307315
     23          6           0        5.528214   -3.321339   -1.009402
     24          6           0        6.614256   -2.637312   -0.637093
     25          7           0        2.578036    1.239890   -0.168782
     26          6           0        3.806023    0.911870   -0.643819
     27          6           0        4.469262    2.093848   -1.026368
     28          6           0        3.605311    3.163691   -0.777317
     29          6           0        2.403318    2.597220   -0.246655
     30          6           0        5.863967    2.143661   -1.596448
     31          6           0        3.852861    4.604333   -1.021750
     32          6           0        5.008709    5.206641   -0.743908
     33          7           0       -0.261835    1.337842    0.295382
     34          6           0        0.032461    2.653742    0.265575
     35          6           0       -1.199391    3.454899    0.322931
     36          6           0       -2.216202    2.580755    0.428078
     37          6           0       -1.600241    1.245295    0.421066
     38          6           0       -1.275563    4.960448    0.281618
     39          6           0       -3.695445    2.892999    0.521153
     40          6           0       -4.249544    3.379652   -0.825550
     41          6           0       -5.758791    3.502548   -0.783024
     42          8           0       -6.451307    3.100759   -1.745672
     43          8           0       -6.327380    4.015680    0.206645
     44          6           0        0.272954    0.801046    3.532610
     45         16           0        1.692498   -0.076330    2.870374
     46          1           0       -6.730953    4.270261    0.710270
     47          1           0       -7.382016   -3.869641   -0.211738
     48          1           0        5.921504    2.919492   -2.331074
     49          1           0        6.563210    2.343167   -0.811492
     50          1           0        6.097100    1.203679   -2.051401
     51          1           0        5.005453    6.193164   -1.158228
     52          1           0        5.134067    5.265800    0.317075
     53          1           0        3.063166    5.190822   -1.442835
     54          1           0        7.270085   -2.525612   -1.475133
     55          1           0        6.322689   -1.671303   -0.281121
     56          1           0        5.650295   -4.190930   -1.620801
     57          1           0        2.864598   -5.672778    0.606431
     58          1           0        4.288617   -5.565251   -0.400383
     59          1           0        2.706432   -5.674824   -1.133697
     60          1           0       -1.327979   -5.299392   -0.444114
     61          1           0       -3.001425   -4.929911   -0.103339
     62          1           0       -1.897376   -5.270076    1.207550
     63          1           0       -4.348653   -1.872519   -1.782270
     64          1           0       -3.827183   -3.117849   -1.766725
     65          1           0       -4.580117   -1.733055    0.919492
     66          1           0       -4.474224   -3.065588    1.091866
     67          1           0       -3.841307    2.912323   -1.697242
     68          1           0       -3.725323    4.193042   -1.282155
     69          1           0       -4.293480    2.173493    1.040350
     70          1           0       -4.002631    3.449589    1.381818
     71          1           0       -2.299692    5.264200    0.220026
     72          1           0       -0.744476    5.321085   -0.574413
     73          1           0       -0.836566    5.364291    1.169927
     74          1           0       -0.463570    0.095346    3.855749
     75          1           0        0.580396    1.401331    4.363295
     76          1           0        2.728260   -0.716501    2.387177
     77          1           0        0.751187   -4.606501    0.650979
     78          1           0       -3.431977    0.183691    0.639667
     79          1           0        1.356254    4.336391    0.352824
     80          1           0        5.343853   -0.494395   -0.983259
     81          1           0       -0.143966    1.429350    2.773459
 ---------------------------------------------------------------------

 SCF Done:  E(UPBE1PBE) =  -3534.88895261     a.u. after   34 cycles

 Alpha virt. eigenvalues --    0.23964   0.24114   0.24288   0.24659   0.24889
 Alpha virt. eigenvalues --    0.25169   0.25328   0.25410   0.25703   0.26138
 Alpha virt. eigenvalues --    0.26221   0.26684   0.27049   0.27242   0.27560

  Beta  occ. eigenvalues -- -256.58840 -89.14872 -30.31922 -26.15392 -26.14992
  Beta  occ. eigenvalues --  -26.14958 -19.34490 -19.31257 -19.24580 -19.24198
  Beta  occ. eigenvalues --  -14.51949 -14.50599 -14.50457 -14.49841 -10.44993
  Beta  occ. eigenvalues --  -10.42738 -10.41451 -10.38469 -10.38246 -10.38117
  Beta  occ. eigenvalues --  -10.37160 -10.37082 -10.37073 -10.36938 -10.36756
  Beta  occ. eigenvalues --  -10.34863 -10.34789 -10.34750 -10.34612 -10.34456
  Beta  occ. eigenvalues --  -10.34267 -10.34194 -10.33936 -10.33792 -10.33790
  Beta  occ. eigenvalues --  -10.33679 -10.33542 -10.33454 -10.33433 -10.33174
  Beta  occ. eigenvalues --  -10.32830 -10.32483 -10.32457 -10.31881 -10.31028
  Beta  occ. eigenvalues --  -10.30912 -10.30165 -10.29677 -10.29505  -8.13316
  Beta  occ. eigenvalues --   -6.07044  -6.06422  -6.06283  -3.61014  -2.36020
  Beta  occ. eigenvalues --   -2.35136  -2.34936  -1.28004  -1.25267  -1.12734
  Beta  occ. eigenvalues --   -1.11434  -1.10914  -1.10192  -1.09641  -1.09060
  Beta  occ. eigenvalues --   -0.96632  -0.95744  -0.94982  -0.94754  -0.94184
  Beta  occ. eigenvalues --   -0.93991  -0.93678  -0.93283  -0.91993  -0.89970
  Beta  occ. eigenvalues --   -0.89118  -0.88487  -0.88116  -0.87912  -0.85422
  Beta  occ. eigenvalues --   -0.83651  -0.82837  -0.82197  -0.81945  -0.80784
  Beta  occ. eigenvalues --   -0.79561  -0.79116  -0.78081  -0.77829  -0.75465
  Beta  occ. eigenvalues --   -0.72685  -0.71980  -0.71559  -0.70763  -0.68892
  Beta  occ. eigenvalues --   -0.67578  -0.66917  -0.65817  -0.65137  -0.64055
  Beta  occ. eigenvalues --   -0.63449  -0.63260  -0.61932  -0.61549  -0.60964
  Beta  occ. eigenvalues --   -0.60439  -0.60331  -0.60077  -0.59241  -0.58924
  Beta  occ. eigenvalues --   -0.58301  -0.58250  -0.57470  -0.57184  -0.56996
  Beta  occ. eigenvalues --   -0.56599  -0.56435  -0.56207  -0.56074  -0.55489
  Beta  occ. eigenvalues --   -0.55223  -0.55070  -0.54703  -0.54358  -0.53951
  Beta  occ. eigenvalues --   -0.53638  -0.53255  -0.53059  -0.52872  -0.52667
  Beta  occ. eigenvalues --   -0.52194  -0.51945  -0.51517  -0.51264  -0.50701
  Beta  occ. eigenvalues --   -0.50446  -0.50210  -0.50054  -0.49743  -0.49360
  Beta  occ. eigenvalues --   -0.49077  -0.48842  -0.48463  -0.48248  -0.47089
  Beta  occ. eigenvalues --   -0.46894  -0.46341  -0.45747  -0.45279  -0.44739
  Beta  occ. eigenvalues --   -0.44160  -0.44149  -0.43868  -0.41998  -0.41836
  Beta  occ. eigenvalues --   -0.41781  -0.40842  -0.40518  -0.39619  -0.39493
  Beta  occ. eigenvalues --   -0.39165  -0.38448  -0.38278  -0.37257  -0.36400
  Beta  occ. eigenvalues --   -0.34901  -0.34636  -0.34440  -0.33116  -0.32253
  Beta  occ. eigenvalues --   -0.31139
  Beta virt. eigenvalues --   -0.23804  -0.23480  -0.23395  -0.21804  -0.21092
  Beta virt. eigenvalues --   -0.19260  -0.18676  -0.14620  -0.14246  -0.12436
  Beta virt. eigenvalues --   -0.10655  -0.07839  -0.07309  -0.06804  -0.06474

 Mulliken charges and spin densities:
               1          2
     1  Fe   0.168638   4.299380
     2  C   -0.503037  -0.004415
     3  C   -0.445594   0.006844
     4  C   -0.448648  -0.002926
     5  C   -0.444178   0.001108
     6  N   -0.134506   0.081522
     7  C    0.360812   0.014022
     8  C   -0.058199   0.019268
     9  C    0.009896   0.030495
    10  C    0.236057  -0.000173
    11  C   -0.400606  -0.000455
    12  C   -0.348660  -0.000510
    13  C   -0.229529   0.001262
    14  C    0.315705   0.000179
    15  O   -0.377851   0.000509
    16  O   -0.330956   0.000003
    17  N   -0.192052   0.056430
    18  C    0.299789   0.003101
    19  C   -0.063019   0.014470
    20  C    0.094567   0.020724
    21  C    0.240097   0.008082
    22  C   -0.380655  -0.000221
    23  C   -0.213771  -0.007441
    24  C   -0.243373   0.011601
    25  N   -0.151444   0.063165
    26  C    0.322947   0.003386
    27  C   -0.092446   0.025236
    28  C    0.070933   0.022661
    29  C    0.276285   0.010173
    30  C   -0.339037   0.000137
    31  C   -0.270049  -0.023840
    32  C   -0.297286   0.031946
    33  N   -0.140261   0.064595
    34  C    0.205792   0.005283
    35  C    0.064021   0.022229
    36  C   -0.041125   0.026545
    37  C    0.365083   0.009224
    38  C   -0.402051  -0.000516
    39  C   -0.374195  -0.001589
    40  C   -0.214399   0.001250
    41  C    0.376402   0.000191
    42  O   -0.340970   0.000581
    43  O   -0.185748   0.000027
    44  C   -0.233450  -0.022211
    45  S   -0.293076   0.199693
    46  H    0.134447   0.000012
    47  H    0.353828   0.000028
    48  H    0.161769   0.000603
    49  H    0.160944   0.001282
    50  H    0.133716   0.000438
    51  H    0.132515  -0.000863
    52  H    0.157283  -0.002173
    53  H    0.149089   0.003023
    54  H    0.136392  -0.000430
    55  H    0.093255  -0.000373
    56  H    0.151925   0.001081
    57  H    0.143740   0.000432
    58  H    0.149561   0.000350
    59  H    0.162377   0.000712
    60  H    0.152522   0.000655
    61  H    0.163269   0.000526
    62  H    0.154788   0.001490
    63  H    0.152128   0.000068
    64  H    0.152704  -0.000069
    65  H    0.111985   0.000044
    66  H    0.163022   0.000727
    67  H    0.148836   0.000022
    68  H    0.135215  -0.000041
    69  H    0.118560   0.000134
    70  H    0.132893   0.001057
    71  H    0.158134   0.000500
    72  H    0.162878   0.000707
    73  H    0.152174   0.000964
    74  H    0.181835   0.000107
    75  H    0.196895  -0.000083
    76  H    0.333653  -0.011869
    77  H    0.170793  -0.000566
    78  H    0.149814   0.000204
    79  H    0.178469  -0.000212
    80  H    0.119921  -0.000591
    81  H    0.171820   0.011078
 Sum of Mulliken charges =   1.00000   5.00000

 Dipole moment (field-independent basis, Debye):
    X=              3.6145    Y=              1.6480    Z=              8.1240  Tot=              9.0432
 Quadrupole moment (field-independent basis, Debye-Ang):
   XX=           -235.5150   YY=           -194.5990   ZZ=           -264.7227
   XY=             -7.0269   XZ=            -49.7413   YZ=              6.9221

 Summary of Natural Population Analysis:

                                       Natural Population
                Natural  -----------------------------------------------
    Atom  No    Charge         Core      Valence    Rydberg      Total
 -----------------------------------------------------------------------
     Fe    1    2.53261      8.99501     1.45115    0.02122    10.46739
      C    2   -0.11132      0.99946     2.10395    0.00792     3.11132
      C    3   -0.09011      0.99949     2.08302    0.00759     3.09011
      C    4   -0.09751      0.99950     2.09028    0.00773     3.09751
      C    5   -0.11027      0.99949     2.10313    0.00765     3.11027
      N    6   -0.19026      0.99969     2.67263    0.01794     3.69026
      C    7    0.08256      0.99947     1.90802    0.00995     2.91744
      C    8    0.00446      0.99941     1.98632    0.00980     2.99554
      C    9    0.02039      0.99941     1.97188    0.00832     2.97961
      C   10    0.07747      0.99948     1.91313    0.00992     2.92253
      C   11   -0.32359      0.99970     2.31764    0.00625     3.32359
      C   12   -0.24163      0.99964     2.23379    0.00821     3.24163
      C   13   -0.27018      0.99958     2.26108    0.00951     3.27018
      C   14    0.37755      0.99977     1.60444    0.01824     2.62245
      O   15   -0.30348      0.99990     3.29123    0.01235     4.30348
      O   16   -0.31946      0.99983     3.30542    0.01422     4.31946
      N   17   -0.20675      0.99965     2.68778    0.01932     3.70675
      C   18    0.07721      0.99951     1.91292    0.01036     2.92279
      C   19    0.01778      0.99943     1.97480    0.00799     2.98222
      C   20   -0.02817      0.99943     2.01882    0.00992     3.02817
      C   21    0.08781      0.99956     1.90230    0.01034     2.91219
      C   22   -0.32189      0.99970     2.31606    0.00613     3.32189
      C   23   -0.07948      0.99958     2.07069    0.00921     3.07948
      C   24   -0.19655      0.99940     2.18655    0.01060     3.19655
      N   25   -0.19772      0.99968     2.67935    0.01869     3.69772
      C   26    0.06740      0.99949     1.92276    0.01034     2.93260
      C   27    0.03328      0.99948     1.95893    0.00830     2.96672
      C   28   -0.03362      0.99947     2.02364    0.01051     3.03362
      C   29    0.08974      0.99952     1.90097    0.00978     2.91026
      C   30   -0.32265      0.99970     2.31658    0.00638     3.32265
      C   31   -0.08026      0.99959     2.07135    0.00932     3.08026
      C   32   -0.20314      0.99938     2.19197    0.01179     3.20314
      N   33   -0.21587      0.99963     2.69857    0.01768     3.71587
      C   34    0.08839      0.99954     1.90207    0.01000     2.91161
      C   35    0.01263      0.99942     1.97986    0.00809     2.98737
      C   36    0.00660      0.99941     1.98449    0.00949     2.99340
      C   37    0.08813      0.99952     1.90186    0.01048     2.91187
      C   38   -0.32583      0.99969     2.31971    0.00643     3.32583
      C   39   -0.23607      0.99962     2.22857    0.00789     3.23607
      C   40   -0.26579      0.99958     2.25712    0.00909     3.26579
      C   41    0.38029      0.99974     1.60417    0.01580     2.61971
      O   42   -0.28071      0.99990     3.26868    0.01213     4.28071
      O   43   -0.29997      0.99973     3.29243    0.00782     4.29997
      C   44   -0.28927      0.99958     2.27993    0.00976     3.28927
      S   45    0.03288      4.99928     2.95553    0.01232     7.96712
      H   46    0.22186      0.00000     0.27660    0.00154     0.27814
      H   47    0.25853      0.00000     0.23989    0.00158     0.24147
      H   48    0.12381      0.00000     0.37552    0.00067     0.37619
      H   49    0.12079      0.00000     0.37863    0.00059     0.37921
      H   50    0.10921      0.00000     0.39026    0.00052     0.39079
      H   51    0.09621      0.00000     0.40313    0.00066     0.40379
      H   52    0.11435      0.00000     0.38434    0.00131     0.38565
      H   53    0.10641      0.00000     0.39252    0.00107     0.39359
      H   54    0.10857      0.00000     0.39055    0.00088     0.39143
      H   55    0.08532      0.00000     0.41370    0.00098     0.41468
      H   56    0.10797      0.00000     0.39119    0.00084     0.39203
      H   57    0.11483      0.00000     0.38464    0.00052     0.38517
      H   58    0.11827      0.00000     0.38117    0.00056     0.38173
      H   59    0.11800      0.00000     0.38140    0.00061     0.38200
      H   60    0.11523      0.00000     0.38424    0.00054     0.38477
      H   61    0.11941      0.00000     0.38005    0.00054     0.38059
      H   62    0.11809      0.00000     0.38129    0.00062     0.38191
      H   63    0.13542      0.00000     0.36385    0.00073     0.36458
      H   64    0.13547      0.00000     0.36390    0.00062     0.36453
      H   65    0.11755      0.00000     0.38151    0.00094     0.38245
      H   66    0.13130      0.00000     0.36794    0.00076     0.36870
      H   67    0.13066      0.00000     0.36862    0.00072     0.36934
      H   68    0.12747      0.00000     0.37181    0.00072     0.37253
      H   69    0.11798      0.00000     0.38107    0.00095     0.38202
      H   70    0.12235      0.00000     0.37643    0.00122     0.37765
      H   71    0.11867      0.00000     0.38072    0.00061     0.38133
      H   72    0.11741      0.00000     0.38201    0.00058     0.38259
      H   73    0.11730      0.00000     0.38210    0.00060     0.38270
      H   74    0.12259      0.00000     0.37679    0.00062     0.37741
      H   75    0.12504      0.00000     0.37444    0.00052     0.37496
      H   76    0.17432      0.00000     0.32365    0.00204     0.32568
      H   77    0.12078      0.00000     0.37821    0.00101     0.37922
      H   78    0.12461      0.00000     0.37444    0.00095     0.37539
      H   79    0.12164      0.00000     0.37745    0.00091     0.37836
      H   80    0.11863      0.00000     0.38001    0.00136     0.38137
      H   81    0.12833      0.00000     0.37101    0.00065     0.37167
 =======================================================================
   * Total *    3.00000     56.97603   113.51063    0.51333   171.00000

 Normal termination of Gaussian 16 at Thu Feb  9 16:24:49 2023.
