 Gaussian 16, Revision A.03,
 Gaussian 16:  ES64L-G16RevA.03 25-Dec-2016

 ----------------------------------------------------------------------
 # PBE1PBE/def2TZVP empiricaldispersion=GD3BJ scf=maxcycle=999 geom=che
 ck pop=nbo
 ----------------------------------------------------------------------

 ----------
 1fj0_III_H
 ----------
 Structure from the checkpoint file:  "1fj0_III_H.chk"
 Charge =  1 Multiplicity = 6

                         Standard orientation:
 ---------------------------------------------------------------------
 Center     Atomic      Atomic             Coordinates (Angstroms)
 Number     Number       Type             X           Y           Z
 ---------------------------------------------------------------------
      1          6           0        2.539931   -1.278184    5.085850
      2          6           0        1.743601   -0.939978    3.869973
      3          7           0        0.352443   -0.941403    3.882255
      4          6           0        2.133309   -0.639332    2.603317
      5          6           0       -0.077681   -0.632783    2.662464
      6          7           0        0.963003   -0.455113    1.869615
      7          6           0       -0.859115    2.787809   -2.642729
      8          6           0        0.544383    2.166189   -2.670075
      9         16           0        0.459986    0.386385   -2.341597
     10          6           0        1.849296   -0.173942   -3.327237
     11         26           0        0.811159   -0.067953   -0.075309
     12          6           0       -2.602792   -0.149521   -0.064561
     13          6           0        0.888636   -3.461654   -0.669057
     14          6           0        4.188172    0.060896   -0.459554
     15          6           0        0.760016    3.217479    0.826950
     16          7           0       -0.579282   -1.502263   -0.308370
     17          6           0       -1.960176   -1.333465   -0.314903
     18          6           0       -2.571809   -2.591331   -0.626017
     19          6           0       -1.605098   -3.506648   -0.775083
     20          6           0       -0.342203   -2.836626   -0.598694
     21          6           0       -1.744385   -5.001413   -1.136408
     22          6           0       -4.109400   -2.810727   -0.678349
     23          6           0       -4.527023   -3.330651    0.718075
     24          6           0       -5.996295   -3.442938    1.015596
     25          8           0       -6.788232   -3.357567    0.053999
     26          8           0       -6.316155   -3.644956    2.219533
     27          7           0        2.240884   -1.415431   -0.492459
     28          6           0        2.088096   -2.785525   -0.596191
     29          6           0        3.392625   -3.414696   -0.683610
     30          6           0        4.316536   -2.446832   -0.640186
     31          6           0        3.603636   -1.193190   -0.550421
     32          6           0        3.600413   -4.941865   -0.770519
     33          6           0        5.841517   -2.583307   -0.740735
     34          6           0        6.162599   -3.315116   -2.057681
     35          7           0        2.184827    1.374060    0.113843
     36          6           0        3.551012    1.208002   -0.067117
     37          6           0        4.199616    2.459289    0.233433
     38          6           0        3.266056    3.353099    0.568034
     39          6           0        1.984638    2.671320    0.523071
     40          6           0        5.751763    2.617138    0.146257
     41          6           0        3.442570    4.798450    1.065244
     42          6           0        4.224180    5.815760    0.213326
     43          7           0       -0.626196    1.272329    0.324640
     44          6           0       -0.462252    2.575486    0.689058
     45          6           0       -1.758196    3.199555    0.882864
     46          6           0       -2.678118    2.267607    0.639832
     47          6           0       -1.995077    1.039415    0.266610
     48          6           0       -1.905585    4.681215    1.313350
     49          6           0       -4.228242    2.412735    0.631944
     50          6           0       -4.682397    2.589499   -0.854275
     51          6           0       -5.995694    3.283586   -1.089952
     52          8           0       -6.751257    3.384018   -0.126466
     53          8           0       -6.212404    3.695924   -2.278297
     54          1           0        3.022254    5.096742    2.002931
     55          1           0        3.725768    5.954246   -0.723321
     56          1           0        4.275420    6.750407    0.731697
     57          1           0        5.214418    5.449458    0.039684
     58          1           0        6.163916    1.793946   -0.399074
     59          1           0        5.989632    3.531979   -0.355125
     60          1           0        6.164593    2.633577    1.133273
     61          1           0        5.223646    0.139000   -0.717613
     62          1           0        5.293551   -3.840458   -2.394834
     63          1           0        6.458395   -2.602323   -2.798851
     64          1           0        6.958874   -4.010882   -1.894114
     65          1           0        6.554580   -2.232773   -0.024099
     66          1           0        2.740386   -5.393897   -1.218761
     67          1           0        4.464435   -5.150940   -1.366046
     68          1           0        3.740444   -5.339308    0.213011
     69          1           0        0.911826   -4.524980   -0.786102
     70          1           0       -2.770292   -5.224279   -1.343161
     71          1           0       -1.151525   -5.216133   -2.000879
     72          1           0       -1.407860   -5.599632   -0.315564
     73          1           0       -3.670628   -0.149696   -0.132586
     74          1           0       -2.585720    4.747441    2.136716
     75          1           0       -0.950685    5.063741    1.607866
     76          1           0       -2.282099    5.255316    0.492652
     77          1           0        0.748615    4.220088    1.200509
     78          1           0       -4.676920    1.534149    1.046280
     79          1           0       -4.515140    3.270671    1.203377
     80          1           0       -3.922525    3.142157   -1.366195
     81          1           0       -4.740707    1.617374   -1.297527
     82          1           0       -6.823287    3.221620   -2.847031
     83          1           0       -7.443229   -4.044303   -0.090824
     84          1           0       -4.094466   -4.300888    0.846271
     85          1           0       -4.096243   -2.679250    1.449516
     86          1           0       -4.351233   -3.535776   -1.427162
     87          1           0       -4.604953   -1.886046   -0.888805
     88          1           0        1.513913   -0.904210   -4.033725
     89          1           0        2.275048    0.657692   -3.848792
     90          1           0        2.587917   -0.609649   -2.687317
     91          1           0       -1.527317    2.136952   -2.118524
     92          1           0       -0.820249    3.734570   -2.145703
     93          1           0       -1.207958    2.925150   -3.644899
     94          1           0        0.982435    2.326676   -3.633016
     95          1           0        1.151894    2.634088   -1.923817
     96          1           0        3.137283   -0.559983    2.241876
     97          1           0       -1.103063   -0.542826    2.370233
     98          1           0       -0.225573   -1.140588    4.673598
     99          1           0        2.591552   -2.341449    5.194030
    100          1           0        3.528644   -0.881372    4.986422
    101          1           0        2.070585   -0.854234    5.948915
 ---------------------------------------------------------------------

 SCF Done:  E(UPBE1PBE) =  -3880.38139272     A.U. after  201 cycles

 Alpha virt. eigenvalues --    0.94333   0.94863   0.95069   0.95317   0.95469
 Alpha virt. eigenvalues --    0.95679   0.95877   0.96089   0.96378   0.96840
 Alpha virt. eigenvalues --    0.96933   0.97373   0.97551   0.97812   0.98073

  Beta  occ. eigenvalues -- -256.51198 -89.12937 -30.25755 -26.09855 -26.08423
  Beta  occ. eigenvalues --  -26.07890 -19.33503 -19.32226 -19.25666 -19.24784
  Beta  occ. eigenvalues --  -14.54846 -14.49857 -14.49819 -14.49727 -14.47434
  Beta  occ. eigenvalues --  -14.47433 -10.42469 -10.42402 -10.38880 -10.36366
  Beta  occ. eigenvalues --  -10.35894 -10.35867 -10.35679 -10.35667 -10.35379
  Beta  occ. eigenvalues --  -10.35284 -10.35233 -10.35150 -10.34146 -10.33619
  Beta  occ. eigenvalues --  -10.32747 -10.32561 -10.32539 -10.32520 -10.32462
  Beta  occ. eigenvalues --  -10.32318 -10.32306 -10.32242 -10.32210 -10.32181
  Beta  occ. eigenvalues --  -10.32150 -10.32086 -10.32083 -10.31960 -10.31835
  Beta  occ. eigenvalues --  -10.31596 -10.31443 -10.31160 -10.30752 -10.30748
  Beta  occ. eigenvalues --  -10.30374 -10.30221 -10.30180 -10.30156 -10.29354
  Beta  occ. eigenvalues --  -10.29306 -10.29195  -8.10869  -6.04489  -6.04194
  Beta  occ. eigenvalues --   -6.03737  -3.56377  -2.33831  -2.30314  -2.29113
  Beta  occ. eigenvalues --   -1.24091  -1.22419  -1.16360  -1.11147  -1.09136
  Beta  occ. eigenvalues --   -1.09039  -1.08463  -1.07355  -1.06697  -1.01261
  Beta  occ. eigenvalues --   -0.94445  -0.94000  -0.92571  -0.92377  -0.92049
  Beta  occ. eigenvalues --   -0.91587  -0.91282  -0.91107  -0.90533  -0.88037
  Beta  occ. eigenvalues --   -0.87524  -0.86448  -0.86244  -0.85320  -0.84273
  Beta  occ. eigenvalues --   -0.83231  -0.82298  -0.81750  -0.81514  -0.80959
  Beta  occ. eigenvalues --   -0.79195  -0.78213  -0.77916  -0.76715  -0.76255
  Beta  occ. eigenvalues --   -0.76066  -0.74945  -0.73884  -0.72607  -0.72402
  Beta  occ. eigenvalues --   -0.71149  -0.70830  -0.70473  -0.69810  -0.68719
  Beta  occ. eigenvalues --   -0.66875  -0.65755  -0.64888  -0.64329  -0.63720
  Beta  occ. eigenvalues --   -0.62460  -0.62361  -0.61581  -0.60137  -0.59913
  Beta  occ. eigenvalues --   -0.59416  -0.58788  -0.58733  -0.58584  -0.58425
  Beta  occ. eigenvalues --   -0.57950  -0.57877  -0.57704  -0.56997  -0.56324
  Beta  occ. eigenvalues --   -0.56036  -0.55560  -0.55322  -0.54860  -0.54480
  Beta  occ. eigenvalues --   -0.54305  -0.54158  -0.53869  -0.53639  -0.53603
  Beta  occ. eigenvalues --   -0.53489  -0.53250  -0.53001  -0.52957  -0.52690
  Beta  occ. eigenvalues --   -0.52512  -0.52269  -0.51731  -0.51533  -0.51412
  Beta  occ. eigenvalues --   -0.51296  -0.50903  -0.50750  -0.50654  -0.50318
  Beta  occ. eigenvalues --   -0.49983  -0.49828  -0.49414  -0.49289  -0.48971
  Beta  occ. eigenvalues --   -0.48691  -0.48532  -0.48207  -0.48098  -0.47585
  Beta  occ. eigenvalues --   -0.47499  -0.47080  -0.47033  -0.46911  -0.46824
  Beta  occ. eigenvalues --   -0.46649  -0.46211  -0.46035  -0.45714  -0.45322
  Beta  occ. eigenvalues --   -0.45034  -0.44942  -0.44238  -0.43956  -0.43943
  Beta  occ. eigenvalues --   -0.43776  -0.43250  -0.43209  -0.42905  -0.42345
  Beta  occ. eigenvalues --   -0.42112  -0.41084  -0.40915  -0.39485  -0.39043
  Beta  occ. eigenvalues --   -0.38723  -0.37965  -0.36687  -0.35432  -0.35283
  Beta  occ. eigenvalues --   -0.34931  -0.34613  -0.34405  -0.33346  -0.33031
  Beta  occ. eigenvalues --   -0.30027  -0.29436
  Beta virt. eigenvalues --   -0.19368  -0.18136  -0.17029  -0.15302  -0.13479
  Beta virt. eigenvalues --   -0.12976  -0.10965  -0.09846  -0.09420  -0.08223
  Beta virt. eigenvalues --   -0.08058  -0.07980  -0.06696  -0.06266  -0.05755

 Mulliken charges and spin densities:
               1          2
     1  C   -0.372336   0.000430
     2  C    0.163877   0.002951
     3  N   -0.206375   0.002067
     4  C   -0.214694   0.001137
     5  C    0.015301   0.008070
     6  N    0.080887   0.006158
     7  C   -0.372824  -0.000701
     8  C   -0.167788   0.003507
     9  S    0.053065   0.018336
    10  C   -0.350256  -0.000889
    11  Fe  -0.334582   2.984364
    12  C   -0.511230  -0.022121
    13  C   -0.514045   0.018843
    14  C   -0.503451   0.022556
    15  C   -0.470180  -0.016290
    16  N   -0.009082   0.028621
    17  C    0.289822   0.029549
    18  C    0.026348   0.002814
    19  C   -0.077642   0.024382
    20  C    0.242613  -0.004440
    21  C   -0.402084  -0.000674
    22  C   -0.318280   0.000733
    23  C   -0.199380   0.000072
    24  C    0.272109   0.000054
    25  O   -0.335097   0.000001
    26  O   -0.352529   0.000080
    27  N   -0.021473  -0.053251
    28  C    0.359926  -0.018553
    29  C   -0.138057   0.086441
    30  C    0.065204  -0.121368
    31  C    0.085096   0.007390
    32  C   -0.338864  -0.004394
    33  C   -0.253987   1.020394
    34  C   -0.343943  -0.065010
    35  N    0.000278   0.042893
    36  C    0.337565  -0.010223
    37  C   -0.044835   0.133393
    38  C    0.013214  -0.129799
    39  C    0.148467   0.040802
    40  C   -0.357447  -0.008324
    41  C   -0.268872   1.014920
    42  C   -0.326715  -0.068734
    43  N    0.080369  -0.093227
    44  C    0.364959   0.024520
    45  C   -0.098406  -0.000173
    46  C    0.000225  -0.001284
    47  C    0.146867   0.027297
    48  C   -0.392320  -0.000891
    49  C   -0.204483  -0.000874
    50  C   -0.264867   0.000259
    51  C    0.299023   0.000071
    52  O   -0.301941  -0.000026
    53  O   -0.368297   0.000019
    54  H    0.152856  -0.048167
    55  H    0.138645   0.034998
    56  H    0.140364   0.000746
    57  H    0.126819   0.034844
    58  H    0.127584   0.000657
    59  H    0.134175   0.002814
    60  H    0.155041   0.005496
    61  H    0.131837   0.001660
    62  H    0.135730   0.005476
    63  H    0.143467   0.041449
    64  H    0.142117   0.016763
    65  H    0.168235  -0.048752
    66  H    0.132146   0.000224
    67  H    0.138262   0.001527
    68  H    0.156659   0.003137
    69  H    0.143760  -0.000742
    70  H    0.139790   0.000309
    71  H    0.151739   0.000679
    72  H    0.152868   0.000811
    73  H    0.121574   0.000783
    74  H    0.154892   0.000047
    75  H    0.132980   0.000129
    76  H    0.152501   0.000198
    77  H    0.108085   0.007347
    78  H    0.136691   0.000009
    79  H    0.141867  -0.000226
    80  H    0.141544  -0.000003
    81  H    0.118233  -0.000020
    82  H    0.358878   0.000001
    83  H    0.362444   0.000004
    84  H    0.141723   0.000000
    85  H    0.131044   0.000067
    86  H    0.134157   0.000227
    87  H    0.126107  -0.000053
    88  H    0.163473  -0.000139
    89  H    0.150280   0.000698
    90  H    0.148614   0.000994
    91  H    0.137437  -0.000003
    92  H    0.123425   0.000190
    93  H    0.143337  -0.000087
    94  H    0.146548   0.000955
    95  H    0.143842   0.000639
    96  H    0.162842   0.000550
    97  H    0.194477   0.000422
    98  H    0.251645   0.001237
    99  H    0.157023   0.000253
   100  H    0.151428   0.000030
   101  H    0.141963  -0.000053
 Sum of Mulliken charges =   1.00000   5.00000

 Dipole moment (field-independent basis, Debye):
    X=              6.1662    Y=             -2.5242    Z=             -1.8069  Tot=              6.9035
 Quadrupole moment (field-independent basis, Debye-Ang):
   XX=           -259.7020   YY=           -260.3986   ZZ=           -274.7888
   XY=             15.6563   XZ=             34.8841   YZ=              4.8417

 Summary of Natural Population Analysis:

                                       Natural Population
                Natural  -----------------------------------------------
    Atom  No    Charge         Core      Valence    Rydberg      Total
 -----------------------------------------------------------------------
      C    1   -0.32186      0.99969     2.31645    0.00572     3.32186
      C    2    0.06508      0.99956     1.92665    0.00871     2.93492
      N    3   -0.23572      0.99969     2.72666    0.00937     3.73572
      C    4   -0.03758      0.99942     2.02909    0.00908     3.03758
      C    5    0.11310      0.99963     1.87660    0.01067     2.88690
      N    6   -0.17854      0.99969     2.65059    0.02826     3.67854
      C    7   -0.30985      0.99972     2.30375    0.00638     3.30985
      C    8   -0.25985      0.99966     2.25061    0.00958     3.25985
      S    9    0.30405      4.99922     2.67547    0.02127     7.69595
      C   10   -0.37423      0.99964     2.36596    0.00863     3.37423
     Fe   11    1.57242      8.99542     2.40022    0.03194    11.42758
      C   12   -0.12835      0.99945     2.12044    0.00845     3.12835
      C   13   -0.10190      0.99947     2.09458    0.00785     3.10190
      C   14   -0.11638      0.99946     2.10876    0.00816     3.11638
      C   15   -0.12576      0.99947     2.11841    0.00787     3.12576
      N   16   -0.18124      0.99970     2.66335    0.01819     3.68124
      C   17    0.08918      0.99948     1.90132    0.01002     2.91082
      C   18   -0.00935      0.99937     2.00005    0.00993     3.00935
      C   19    0.01380      0.99921     1.97594    0.01105     2.98620
      C   20    0.07801      0.99951     1.91212    0.01036     2.92199
      C   21   -0.32116      0.99970     2.31798    0.00348     3.32116
      C   22   -0.20976      0.99968     2.20356    0.00652     3.20976
      C   23   -0.25143      0.99962     2.24319    0.00863     3.25143
      C   24    0.38052      0.99974     1.60202    0.01773     2.61948
      O   25   -0.33412      0.99980     3.32030    0.01402     4.33412
      O   26   -0.28793      0.99990     3.27656    0.01147     4.28793
      N   27   -0.22764      0.99969     2.70176    0.02619     3.72764
      C   28    0.06876      0.99950     1.92098    0.01075     2.93124
      C   29    0.04144      0.99937     1.95084    0.00835     2.95856
      C   30   -0.09322      0.99936     2.08438    0.00947     3.09322
      C   31    0.09489      0.99950     1.89532    0.01030     2.90511
      C   32   -0.31871      0.99969     2.31551    0.00351     3.31871
      C   33    0.42782      0.99973     1.56809    0.00435     2.57218
      C   34   -0.35564      0.99972     2.35251    0.00341     3.35564
      N   35   -0.18044      0.99970     2.66259    0.01816     3.68044
      C   36    0.07626      0.99949     1.91417    0.01008     2.92374
      C   37    0.06109      0.99934     1.93132    0.00825     2.93891
      C   38   -0.09310      0.99935     2.08429    0.00946     3.09310
      C   39    0.11654      0.99950     1.87420    0.00975     2.88346
      C   40   -0.31658      0.99969     2.31343    0.00345     3.31658
      C   41    0.42998      0.99974     1.56591    0.00437     2.57002
      C   42   -0.35842      0.99972     2.35539    0.00332     3.35842
      N   43   -0.24646      0.99968     2.71995    0.02684     3.74646
      C   44    0.09412      0.99951     1.89514    0.01123     2.90588
      C   45   -0.00505      0.99929     1.99711    0.00864     3.00505
      C   46   -0.00900      0.99935     2.00037    0.00927     3.00900
      C   47    0.08402      0.99949     1.90610    0.01039     2.91598
      C   48   -0.31629      0.99970     2.31302    0.00358     3.31629
      C   49   -0.20903      0.99968     2.20240    0.00696     3.20903
      C   50   -0.25435      0.99962     2.24642    0.00831     3.25435
      C   51    0.38493      0.99972     1.59775    0.01759     2.61507
      O   52   -0.27414      0.99988     3.26169    0.01257     4.27414
      O   53   -0.34465      0.99982     3.33113    0.01371     4.34465
      H   54    0.08090      0.00000     0.41833    0.00077     0.41910
      H   55    0.12894      0.00000     0.37057    0.00049     0.37106
      H   56    0.11386      0.00000     0.38561    0.00053     0.38614
      H   57    0.12520      0.00000     0.37415    0.00065     0.37480
      H   58    0.10740      0.00000     0.39205    0.00055     0.39260
      H   59    0.11433      0.00000     0.38496    0.00071     0.38567
      H   60    0.11737      0.00000     0.38200    0.00064     0.38263
      H   61    0.11773      0.00000     0.38108    0.00119     0.38227
      H   62    0.11047      0.00000     0.38888    0.00065     0.38953
      H   63    0.13482      0.00000     0.36468    0.00050     0.36518
      H   64    0.12085      0.00000     0.37858    0.00058     0.37915
      H   65    0.08721      0.00000     0.41203    0.00076     0.41279
      H   66    0.10949      0.00000     0.38992    0.00059     0.39051
      H   67    0.11452      0.00000     0.38474    0.00074     0.38548
      H   68    0.11813      0.00000     0.38120    0.00067     0.38187
      H   69    0.11622      0.00000     0.38251    0.00127     0.38378
      H   70    0.11226      0.00000     0.38707    0.00067     0.38774
      H   71    0.11454      0.00000     0.38478    0.00068     0.38546
      H   72    0.11423      0.00000     0.38509    0.00069     0.38577
      H   73    0.11568      0.00000     0.38300    0.00132     0.38432
      H   74    0.11677      0.00000     0.38255    0.00068     0.38323
      H   75    0.10879      0.00000     0.39066    0.00055     0.39121
      H   76    0.11504      0.00000     0.38429    0.00068     0.38496
      H   77    0.11694      0.00000     0.38176    0.00129     0.38306
      H   78    0.11169      0.00000     0.38759    0.00072     0.38831
      H   79    0.12155      0.00000     0.37774    0.00071     0.37845
      H   80    0.11412      0.00000     0.38525    0.00064     0.38588
      H   81    0.11334      0.00000     0.38603    0.00063     0.38666
      H   82    0.26019      0.00000     0.23867    0.00114     0.23981
      H   83    0.26187      0.00000     0.23691    0.00122     0.23813
      H   84    0.12070      0.00000     0.37871    0.00059     0.37930
      H   85    0.11721      0.00000     0.38214    0.00064     0.38279
      H   86    0.11257      0.00000     0.38664    0.00079     0.38743
      H   87    0.10829      0.00000     0.39098    0.00073     0.39171
      H   88    0.11856      0.00000     0.38102    0.00042     0.38144
      H   89    0.11740      0.00000     0.38200    0.00060     0.38260
      H   90    0.12060      0.00000     0.37862    0.00077     0.37940
      H   91    0.10928      0.00000     0.38955    0.00117     0.39072
      H   92    0.11089      0.00000     0.38858    0.00053     0.38911
      H   93    0.11016      0.00000     0.38932    0.00052     0.38984
      H   94    0.11504      0.00000     0.38426    0.00070     0.38496
      H   95    0.11514      0.00000     0.38381    0.00105     0.38486
      H   96    0.12032      0.00000     0.37893    0.00075     0.37968
      H   97    0.11604      0.00000     0.38299    0.00097     0.38396
      H   98    0.21430      0.00000     0.28495    0.00075     0.28570
      H   99    0.11687      0.00000     0.38257    0.00055     0.38313
      H  100    0.12026      0.00000     0.37936    0.00038     0.37974
      H  101    0.11368      0.00000     0.38582    0.00051     0.38632
 =======================================================================
   * Total *    3.00002     64.97370   136.41533    0.61094   201.99998

 Normal termination of Gaussian 16 at Mon Nov 14 04:51:08 2022.
