 Gaussian 16, Revision A.03,
 Gaussian 16:  ES64L-G16RevA.03 25-Dec-2016

 ----------------------------------------------------------------------
 # PBE1PBE/def2TZVP empiricaldispersion=GD3BJ scf=maxcycle=999 geom=che
 ck pop=nbo
 ----------------------------------------------------------------------

 ----------
 1fj0_III_D
 ----------
 Structure from the checkpoint file:  "1fj0_III_D.chk"
 Charge =  1 Multiplicity = 2

                         Standard orientation:
 ---------------------------------------------------------------------
 Center     Atomic      Atomic             Coordinates (Angstroms)
 Number     Number       Type             X           Y           Z
 ---------------------------------------------------------------------
      1          6           0        2.539931   -1.278184    5.085850
      2          6           0        1.743601   -0.939978    3.869973
      3          7           0        0.352443   -0.941403    3.882255
      4          6           0        2.133309   -0.639332    2.603317
      5          6           0       -0.077681   -0.632783    2.662464
      6          7           0        0.963003   -0.455113    1.869615
      7          6           0       -0.859115    2.787809   -2.642729
      8          6           0        0.544383    2.166189   -2.670075
      9         16           0        0.459986    0.386385   -2.341597
     10          6           0        1.849296   -0.173942   -3.327237
     11         26           0        0.811159   -0.067953   -0.075309
     12          6           0       -2.602792   -0.149521   -0.064561
     13          6           0        0.888636   -3.461654   -0.669057
     14          6           0        4.188172    0.060896   -0.459554
     15          6           0        0.760016    3.217479    0.826950
     16          7           0       -0.579282   -1.502263   -0.308370
     17          6           0       -1.960176   -1.333465   -0.314903
     18          6           0       -2.571809   -2.591331   -0.626017
     19          6           0       -1.605098   -3.506648   -0.775083
     20          6           0       -0.342203   -2.836626   -0.598694
     21          6           0       -1.744385   -5.001413   -1.136408
     22          6           0       -4.109400   -2.810727   -0.678349
     23          6           0       -4.527023   -3.330651    0.718075
     24          6           0       -5.996295   -3.442938    1.015596
     25          8           0       -6.788232   -3.357567    0.053999
     26          8           0       -6.316155   -3.644956    2.219533
     27          7           0        2.240884   -1.415431   -0.492459
     28          6           0        2.088096   -2.785525   -0.596191
     29          6           0        3.392625   -3.414696   -0.683610
     30          6           0        4.316536   -2.446832   -0.640186
     31          6           0        3.603636   -1.193190   -0.550421
     32          6           0        3.600413   -4.941865   -0.770519
     33          6           0        5.841517   -2.583307   -0.740735
     34          6           0        6.162599   -3.315116   -2.057681
     35          7           0        2.184827    1.374060    0.113843
     36          6           0        3.551012    1.208002   -0.067117
     37          6           0        4.199616    2.459289    0.233433
     38          6           0        3.266056    3.353099    0.568034
     39          6           0        1.984638    2.671320    0.523071
     40          6           0        5.751763    2.617138    0.146257
     41          6           0        3.442570    4.798450    1.065244
     42          6           0        4.224180    5.815760    0.213326
     43          7           0       -0.626196    1.272329    0.324640
     44          6           0       -0.462252    2.575486    0.689058
     45          6           0       -1.758196    3.199555    0.882864
     46          6           0       -2.678118    2.267607    0.639832
     47          6           0       -1.995077    1.039415    0.266610
     48          6           0       -1.905585    4.681215    1.313350
     49          6           0       -4.228242    2.412735    0.631944
     50          6           0       -4.682397    2.589499   -0.854275
     51          6           0       -5.995694    3.283586   -1.089952
     52          8           0       -6.751257    3.384018   -0.126466
     53          8           0       -6.212404    3.695924   -2.278297
     54          1           0        3.022254    5.096742    2.002931
     55          1           0        3.725768    5.954246   -0.723321
     56          1           0        4.275420    6.750407    0.731697
     57          1           0        5.214418    5.449458    0.039684
     58          1           0        6.163916    1.793946   -0.399074
     59          1           0        5.989632    3.531979   -0.355125
     60          1           0        6.164593    2.633577    1.133273
     61          1           0        5.223646    0.139000   -0.717613
     62          1           0        5.293551   -3.840458   -2.394834
     63          1           0        6.458395   -2.602323   -2.798851
     64          1           0        6.958874   -4.010882   -1.894114
     65          1           0        6.554580   -2.232773   -0.024099
     66          1           0        2.740386   -5.393897   -1.218761
     67          1           0        4.464435   -5.150940   -1.366046
     68          1           0        3.740444   -5.339308    0.213011
     69          1           0        0.911826   -4.524980   -0.786102
     70          1           0       -2.770292   -5.224279   -1.343161
     71          1           0       -1.151525   -5.216133   -2.000879
     72          1           0       -1.407860   -5.599632   -0.315564
     73          1           0       -3.670628   -0.149696   -0.132586
     74          1           0       -2.585720    4.747441    2.136716
     75          1           0       -0.950685    5.063741    1.607866
     76          1           0       -2.282099    5.255316    0.492652
     77          1           0        0.748615    4.220088    1.200509
     78          1           0       -4.676920    1.534149    1.046280
     79          1           0       -4.515140    3.270671    1.203377
     80          1           0       -3.922525    3.142157   -1.366195
     81          1           0       -4.740707    1.617374   -1.297527
     82          1           0       -6.823287    3.221620   -2.847031
     83          1           0       -7.443229   -4.044303   -0.090824
     84          1           0       -4.094466   -4.300888    0.846271
     85          1           0       -4.096243   -2.679250    1.449516
     86          1           0       -4.351233   -3.535776   -1.427162
     87          1           0       -4.604953   -1.886046   -0.888805
     88          1           0        1.513913   -0.904210   -4.033725
     89          1           0        2.275048    0.657692   -3.848792
     90          1           0        2.587917   -0.609649   -2.687317
     91          1           0       -1.527317    2.136952   -2.118524
     92          1           0       -0.820249    3.734570   -2.145703
     93          1           0       -1.207958    2.925150   -3.644899
     94          1           0        0.982435    2.326676   -3.633016
     95          1           0        1.151894    2.634088   -1.923817
     96          1           0        3.137283   -0.559983    2.241876
     97          1           0       -1.103063   -0.542826    2.370233
     98          1           0       -0.225573   -1.140588    4.673598
     99          1           0        2.591552   -2.341449    5.194030
    100          1           0        3.528644   -0.881372    4.986422
    101          1           0        2.070585   -0.854234    5.948915
 ---------------------------------------------------------------------

 SCF Done:  E(UPBE1PBE) =  -3880.36861969     A.U. after   63 cycles

 Alpha virt. eigenvalues --    0.95768   0.95954   0.96272   0.96477   0.96651
 Alpha virt. eigenvalues --    0.96796   0.96885   0.97460   0.97652   0.98085
 Alpha virt. eigenvalues --    0.98368   0.98649   0.98817   0.99320   0.99434

  Beta  occ. eigenvalues -- -256.43333 -89.11635 -30.20093 -26.02917 -26.02727
  Beta  occ. eigenvalues --  -26.02431 -19.33122 -19.31864 -19.25273 -19.24394
  Beta  occ. eigenvalues --  -14.53569 -14.48889 -14.48511 -14.47424 -14.47243
  Beta  occ. eigenvalues --  -14.47117 -10.42066 -10.41996 -10.39430 -10.37320
  Beta  occ. eigenvalues --  -10.36069 -10.35609 -10.35243 -10.35240 -10.35087
  Beta  occ. eigenvalues --  -10.34863 -10.34860 -10.34825 -10.34789 -10.34641
  Beta  occ. eigenvalues --  -10.33749 -10.32939 -10.32736 -10.32513 -10.32366
  Beta  occ. eigenvalues --  -10.32302 -10.31871 -10.31695 -10.31685 -10.31613
  Beta  occ. eigenvalues --  -10.31477 -10.31476 -10.31376 -10.31330 -10.31282
  Beta  occ. eigenvalues --  -10.31277 -10.31254 -10.31070 -10.30749 -10.30527
  Beta  occ. eigenvalues --  -10.30279 -10.30236 -10.29795 -10.29778 -10.29720
  Beta  occ. eigenvalues --  -10.29259 -10.28526  -8.09451  -6.03092  -6.02798
  Beta  occ. eigenvalues --   -6.02312  -3.53810  -2.29450  -2.29194  -2.28934
  Beta  occ. eigenvalues --   -1.23708  -1.22051  -1.15076  -1.10760  -1.08651
  Beta  occ. eigenvalues --   -1.08547  -1.07218  -1.07038  -1.05930  -0.99907
  Beta  occ. eigenvalues --   -0.94043  -0.93157  -0.92642  -0.92019  -0.91545
  Beta  occ. eigenvalues --   -0.91332  -0.90921  -0.90650  -0.90076  -0.88019
  Beta  occ. eigenvalues --   -0.87301  -0.86869  -0.85951  -0.85225  -0.84852
  Beta  occ. eigenvalues --   -0.83476  -0.81911  -0.81329  -0.81065  -0.80889
  Beta  occ. eigenvalues --   -0.78882  -0.77643  -0.77350  -0.76165  -0.75825
  Beta  occ. eigenvalues --   -0.75591  -0.74344  -0.73633  -0.73364  -0.72058
  Beta  occ. eigenvalues --   -0.71227  -0.70636  -0.69639  -0.69538  -0.68045
  Beta  occ. eigenvalues --   -0.65737  -0.65631  -0.64932  -0.64367  -0.63487
  Beta  occ. eigenvalues --   -0.62185  -0.61881  -0.61316  -0.59868  -0.59626
  Beta  occ. eigenvalues --   -0.59013  -0.58840  -0.58236  -0.57849  -0.57651
  Beta  occ. eigenvalues --   -0.57284  -0.56861  -0.56711  -0.56401  -0.56042
  Beta  occ. eigenvalues --   -0.55494  -0.55116  -0.54835  -0.54671  -0.54302
  Beta  occ. eigenvalues --   -0.54275  -0.53816  -0.53666  -0.53333  -0.53302
  Beta  occ. eigenvalues --   -0.53106  -0.52968  -0.52752  -0.52728  -0.52349
  Beta  occ. eigenvalues --   -0.52318  -0.52054  -0.51978  -0.51605  -0.51492
  Beta  occ. eigenvalues --   -0.51089  -0.50821  -0.50572  -0.50357  -0.50136
  Beta  occ. eigenvalues --   -0.49954  -0.49847  -0.49505  -0.49281  -0.48970
  Beta  occ. eigenvalues --   -0.48749  -0.48593  -0.48003  -0.47579  -0.47505
  Beta  occ. eigenvalues --   -0.47166  -0.46717  -0.46612  -0.46481  -0.46294
  Beta  occ. eigenvalues --   -0.45990  -0.45899  -0.45727  -0.45401  -0.44779
  Beta  occ. eigenvalues --   -0.44411  -0.44223  -0.43772  -0.43600  -0.42941
  Beta  occ. eigenvalues --   -0.42773  -0.42568  -0.42332  -0.41896  -0.41502
  Beta  occ. eigenvalues --   -0.40717  -0.40293  -0.39698  -0.39091  -0.38761
  Beta  occ. eigenvalues --   -0.38476  -0.37234  -0.35276  -0.35037  -0.34846
  Beta  occ. eigenvalues --   -0.34339  -0.33901  -0.33688  -0.32616  -0.31613
  Beta  occ. eigenvalues --   -0.29928  -0.29685  -0.28939  -0.26517
  Beta virt. eigenvalues --   -0.21861  -0.17108  -0.16702  -0.13428  -0.10173
  Beta virt. eigenvalues --   -0.08382  -0.07810  -0.07593  -0.07021  -0.06038
  Beta virt. eigenvalues --   -0.05756  -0.05337  -0.05125  -0.04835  -0.04338

 Mulliken charges and spin densities:
               1          2
     1  C   -0.373934  -0.000300
     2  C    0.166274   0.002558
     3  N   -0.212071  -0.000437
     4  C   -0.224796  -0.003938
     5  C    0.008109  -0.002834
     6  N    0.077764  -0.002667
     7  C   -0.369956  -0.000314
     8  C   -0.159016  -0.000805
     9  S    0.056484  -0.011286
    10  C   -0.349880  -0.000286
    11  Fe  -0.450449   0.321433
    12  C   -0.518662   0.078495
    13  C   -0.527648   0.049671
    14  C   -0.506272   0.050741
    15  C   -0.475162   0.013803
    16  N    0.033854   0.048478
    17  C    0.289421  -0.125529
    18  C    0.025996   0.012273
    19  C   -0.083177  -0.030021
    20  C    0.252384  -0.085242
    21  C   -0.402096   0.002000
    22  C   -0.318986   0.000976
    23  C   -0.199133  -0.001014
    24  C    0.272079   0.000010
    25  O   -0.335053  -0.000017
    26  O   -0.353369  -0.000381
    27  N   -0.025366   0.054233
    28  C    0.375082  -0.106396
    29  C   -0.143425   0.123070
    30  C    0.062723  -0.155740
    31  C    0.080669  -0.065807
    32  C   -0.340448  -0.005714
    33  C   -0.248418   0.992902
    34  C   -0.342300  -0.064616
    35  N    0.064643   0.013808
    36  C    0.323414  -0.089678
    37  C   -0.031949   0.133586
    38  C   -0.010838  -0.076830
    39  C    0.171214  -0.069769
    40  C   -0.356851  -0.008034
    41  C   -0.173616   0.175988
    42  C   -0.320497  -0.013668
    43  N    0.069888   0.034230
    44  C    0.348350  -0.061430
    45  C   -0.096851  -0.036375
    46  C   -0.002656   0.020285
    47  C    0.153038  -0.130695
    48  C   -0.397350   0.002939
    49  C   -0.205165  -0.000404
    50  C   -0.264914  -0.000274
    51  C    0.298493  -0.000180
    52  O   -0.302927  -0.000060
    53  O   -0.368784  -0.000058
    54  H    0.179346  -0.009174
    55  H    0.166813   0.004537
    56  H    0.153667  -0.000006
    57  H    0.147759   0.007009
    58  H    0.135931   0.000935
    59  H    0.127402   0.002698
    60  H    0.158255   0.005051
    61  H    0.126948  -0.000200
    62  H    0.138489   0.005200
    63  H    0.143519   0.039431
    64  H    0.141365   0.016533
    65  H    0.167387  -0.048011
    66  H    0.131988   0.000597
    67  H    0.135648   0.001925
    68  H    0.155595   0.004079
    69  H    0.141887  -0.002134
    70  H    0.138425   0.000035
    71  H    0.150214  -0.001275
    72  H    0.151444  -0.001621
    73  H    0.119071  -0.003595
    74  H    0.154747  -0.001195
    75  H    0.124507  -0.000139
    76  H    0.151973  -0.001873
    77  H    0.092011  -0.000223
    78  H    0.135635   0.000064
    79  H    0.139108   0.000143
    80  H    0.141477  -0.000019
    81  H    0.118412  -0.000069
    82  H    0.358279  -0.000010
    83  H    0.361694   0.000004
    84  H    0.141467   0.000006
    85  H    0.132159   0.000091
    86  H    0.133433  -0.000024
    87  H    0.125904  -0.000024
    88  H    0.159422  -0.000002
    89  H    0.143112  -0.000005
    90  H    0.143307  -0.000172
    91  H    0.137580   0.000333
    92  H    0.116182  -0.000002
    93  H    0.140027  -0.000057
    94  H    0.140520  -0.000404
    95  H    0.126878   0.000143
    96  H    0.154802   0.000265
    97  H    0.188815   0.000233
    98  H    0.248247   0.000078
    99  H    0.155089   0.000133
   100  H    0.146773   0.000012
   101  H    0.139419   0.000021
 Sum of Mulliken charges =   1.00000   1.00000

 Dipole moment (field-independent basis, Debye):
    X=              9.0115    Y=              1.0738    Z=             -1.3791  Tot=              9.1795
 Quadrupole moment (field-independent basis, Debye-Ang):
   XX=           -248.8998   YY=           -241.0369   ZZ=           -278.1447
   XY=             32.6992   XZ=             36.6300   YZ=              8.7192

 Summary of Natural Population Analysis:

                                       Natural Population
                Natural  -----------------------------------------------
    Atom  No    Charge         Core      Valence    Rydberg      Total
 -----------------------------------------------------------------------
      C    1   -0.32139      0.99969     2.31850    0.00320     3.32139
      C    2    0.06121      0.99956     1.93014    0.00909     2.93879
      N    3   -0.24145      0.99969     2.73193    0.00983     3.74145
      C    4   -0.04360      0.99943     2.03479    0.00938     3.04360
      C    5    0.10188      0.99966     1.88895    0.00952     2.89812
      N    6   -0.16451      0.99967     2.63887    0.02597     3.66451
      C    7   -0.30952      0.99972     2.30546    0.00434     3.30952
      C    8   -0.26286      0.99966     2.25402    0.00918     3.26286
      S    9    0.28476      4.99932     2.69600    0.01991     7.71524
      C   10   -0.37626      0.99964     2.36799    0.00862     3.37626
     Fe   11    0.11898      8.99532     3.86216    0.02354    12.88102
      C   12   -0.09968      0.99945     2.09124    0.00899     3.09968
      C   13   -0.10295      0.99947     2.09505    0.00843     3.10295
      C   14   -0.11062      0.99946     2.10261    0.00856     3.11062
      C   15   -0.12886      0.99947     2.12076    0.00863     3.12886
      N   16   -0.15954      0.99969     2.63663    0.02321     3.65954
      C   17    0.03020      0.99950     1.95948    0.01083     2.96980
      C   18   -0.00670      0.99937     1.99738    0.00996     3.00670
      C   19   -0.02549      0.99937     2.01770    0.00842     3.02549
      C   20    0.05791      0.99952     1.93228    0.01030     2.94209
      C   21   -0.31898      0.99970     2.31570    0.00358     3.31898
      C   22   -0.21059      0.99968     2.20431    0.00659     3.21059
      C   23   -0.25180      0.99962     2.24353    0.00865     3.25180
      C   24    0.38065      0.99974     1.60188    0.01774     2.61935
      O   25   -0.33414      0.99980     3.32031    0.01403     4.33414
      O   26   -0.28860      0.99990     3.27723    0.01147     4.28860
      N   27   -0.16767      0.99968     2.64493    0.02305     3.66767
      C   28    0.04905      0.99952     1.94098    0.01045     2.95095
      C   29    0.04819      0.99937     1.94390    0.00854     2.95181
      C   30   -0.10899      0.99936     2.09992    0.00971     3.10899
      C   31    0.06841      0.99952     1.92157    0.01050     2.93159
      C   32   -0.31959      0.99969     2.31639    0.00351     3.31959
      C   33    0.41942      0.99973     1.57647    0.00438     2.58058
      C   34   -0.35600      0.99972     2.35282    0.00346     3.35600
      N   35   -0.15947      0.99968     2.63685    0.02294     3.65947
      C   36    0.03829      0.99950     1.95153    0.01068     2.96171
      C   37    0.06441      0.99934     1.92752    0.00872     2.93559
      C   38   -0.09753      0.99932     2.08787    0.01033     3.09753
      C   39    0.06342      0.99951     1.92637    0.01069     2.93658
      C   40   -0.31720      0.99969     2.31402    0.00349     3.31720
      C   41    0.11516      0.99974     1.87942    0.00568     2.88484
      C   42   -0.34731      0.99970     2.34186    0.00575     3.34731
      N   43   -0.17848      0.99967     2.65445    0.02435     3.67848
      C   44    0.06913      0.99953     1.92026    0.01108     2.93087
      C   45   -0.03088      0.99935     2.02258    0.00896     3.03088
      C   46   -0.00549      0.99935     1.99664    0.00949     3.00549
      C   47    0.03083      0.99952     1.95903    0.01063     2.96917
      C   48   -0.31505      0.99969     2.31172    0.00364     3.31505
      C   49   -0.20969      0.99968     2.20301    0.00700     3.20969
      C   50   -0.25471      0.99962     2.24673    0.00837     3.25471
      C   51    0.38494      0.99972     1.59773    0.01761     2.61506
      O   52   -0.27473      0.99988     3.26228    0.01257     4.27473
      O   53   -0.34499      0.99982     3.33148    0.01370     4.34499
      H   54    0.10053      0.00000     0.39859    0.00088     0.39947
      H   55    0.12749      0.00000     0.37195    0.00056     0.37251
      H   56    0.11726      0.00000     0.38229    0.00045     0.38274
      H   57    0.12434      0.00000     0.37487    0.00078     0.37566
      H   58    0.11140      0.00000     0.38806    0.00055     0.38860
      H   59    0.11140      0.00000     0.38782    0.00078     0.38860
      H   60    0.11785      0.00000     0.38149    0.00066     0.38215
      H   61    0.11444      0.00000     0.38435    0.00122     0.38556
      H   62    0.11158      0.00000     0.38777    0.00065     0.38842
      H   63    0.13441      0.00000     0.36509    0.00051     0.36559
      H   64    0.12034      0.00000     0.37907    0.00059     0.37966
      H   65    0.08699      0.00000     0.41223    0.00078     0.41301
      H   66    0.10952      0.00000     0.38988    0.00060     0.39048
      H   67    0.11378      0.00000     0.38548    0.00074     0.38622
      H   68    0.11811      0.00000     0.38122    0.00067     0.38189
      H   69    0.11409      0.00000     0.38461    0.00131     0.38591
      H   70    0.11175      0.00000     0.38758    0.00067     0.38825
      H   71    0.11306      0.00000     0.38622    0.00072     0.38694
      H   72    0.11244      0.00000     0.38683    0.00072     0.38756
      H   73    0.11222      0.00000     0.38638    0.00141     0.38778
      H   74    0.11589      0.00000     0.38339    0.00071     0.38411
      H   75    0.10615      0.00000     0.39329    0.00057     0.39385
      H   76    0.11341      0.00000     0.38587    0.00072     0.38659
      H   77    0.11039      0.00000     0.38797    0.00164     0.38961
      H   78    0.11138      0.00000     0.38790    0.00073     0.38862
      H   79    0.12070      0.00000     0.37858    0.00071     0.37930
      H   80    0.11422      0.00000     0.38512    0.00065     0.38578
      H   81    0.11353      0.00000     0.38584    0.00063     0.38647
      H   82    0.25999      0.00000     0.23886    0.00115     0.24001
      H   83    0.26162      0.00000     0.23715    0.00123     0.23838
      H   84    0.12082      0.00000     0.37859    0.00060     0.37918
      H   85    0.11751      0.00000     0.38185    0.00065     0.38249
      H   86    0.11229      0.00000     0.38692    0.00080     0.38771
      H   87    0.10825      0.00000     0.39101    0.00074     0.39175
      H   88    0.11654      0.00000     0.38302    0.00044     0.38346
      H   89    0.11413      0.00000     0.38516    0.00071     0.38587
      H   90    0.11921      0.00000     0.38011    0.00068     0.38079
      H   91    0.10971      0.00000     0.38890    0.00139     0.39029
      H   92    0.10854      0.00000     0.39078    0.00068     0.39146
      H   93    0.10891      0.00000     0.39044    0.00065     0.39109
      H   94    0.11167      0.00000     0.38761    0.00072     0.38833
      H   95    0.11049      0.00000     0.38837    0.00114     0.38951
      H   96    0.11684      0.00000     0.38239    0.00077     0.38316
      H   97    0.11431      0.00000     0.38465    0.00104     0.38569
      H   98    0.21251      0.00000     0.28666    0.00083     0.28749
      H   99    0.11570      0.00000     0.38363    0.00067     0.38430
      H  100    0.11844      0.00000     0.38108    0.00048     0.38156
      H  101    0.11238      0.00000     0.38696    0.00065     0.38762
 =======================================================================
   * Total *    1.00000     64.97400   138.41715    0.60885   204.00000

 Normal termination of Gaussian 16 at Tue Nov  8 21:14:15 2022.
